 Gaussian 16, Revision A.03,

 ----------------------------------------------------------------------
 #p M062X/6-31+G(d) opt(tight) int(grid=ultrafine) scf(xqc,fermi,maxcyc
 =200) scrf(smd,solvent=water)
 ----------------------------------------------------------------------

 (Enter /export/g16/l101.exe)

 Symbolic Z-matrix:
 Charge = -1 Multiplicity = 2

 SCF Done:  E(UM062X) =  -695.823627753     A.U. after   20 cycles
 SCF Done:  E(UM062X) =  -695.824243260     A.U. after   15 cycles
 SCF Done:  E(UM062X) =  -695.824296833     A.U. after   14 cycles
 SCF Done:  E(UM062X) =  -695.824336806     A.U. after   14 cycles
 SCF Done:  E(UM062X) =  -695.824337639     A.U. after   12 cycles
 SCF Done:  E(UM062X) =  -695.824337600     A.U. after   11 cycles
 SCF Done:  E(UM062X) =  -695.824337859     A.U. after   11 cycles
 SCF Done:  E(UM062X) =  -695.824337883     A.U. after   10 cycles
 SCF Done:  E(UM062X) =  -695.824337884     A.U. after    6 cycles
 SCF Done:  E(UM062X) =  -695.824337883     A.U. after    5 cycles
 SCF Done:  E(UM062X) =  -695.824337886     A.U. after    5 cycles
 SCF Done:  E(UM062X) =  -695.824337883     A.U. after    5 cycles
 Optimization completed.
    -- Stationary point found.
 Normal termination of Gaussian 16 at Wed Apr  9 18:27:10 2025.

 ----------------------------------------------------------------------
 #p M062X/6-31+G(d) stable(opt) pop(nbo) int(grid=ultrafine) scf(xqc,fe
 rmi,maxcyc=200) scrf(check) guess(read) geom(allcheck)
 ----------------------------------------------------------------------

 Structure from the checkpoint file:  "Q-AR.chk"

 Charge = -1 Multiplicity = 2

 SCF Done:  E(UM062X) =  -695.824337883     A.U. after    1 cycles

 Summary of Natural Population Analysis:

                                       Natural Population
                Natural  -----------------------------------------------
    Atom  No    Charge         Core      Valence    Rydberg      Total
 -----------------------------------------------------------------------
      C    1   -0.17695      0.99949     2.16890    0.00856     3.17695
      C    2    0.06138      0.99954     1.92832    0.01076     2.93862
      C    3    0.24125      0.99955     1.73999    0.01921     2.75875
      C    4    0.24386      0.99952     1.73806    0.01857     2.75614
      C    5   -0.01878      0.99950     2.00930    0.00998     3.01878
      C    6   -0.08824      0.99953     2.08108    0.00763     3.08824
      H    7    0.12465      0.00000     0.37466    0.00069     0.37535
      H    8    0.12436      0.00000     0.37493    0.00071     0.37564
      O    9   -0.28219      0.99991     3.27532    0.00695     4.28219
      O   10   -0.24384      0.99991     3.23738    0.00654     4.24384
      C   11   -0.06462      0.99960     2.05771    0.00731     3.06462
      C   12   -0.34260      0.99973     2.33804    0.00483     3.34260
      H   13    0.12076      0.00000     0.37904    0.00020     0.37924
      H   14    0.12023      0.00000     0.37957    0.00020     0.37977
      H   15    0.12522      0.00000     0.37432    0.00046     0.37478
      C   16   -0.34260      0.99973     2.33804    0.00483     3.34260
      H   17    0.12023      0.00000     0.37957    0.00020     0.37977
      H   18    0.12076      0.00000     0.37904    0.00020     0.37924
      H   19    0.12522      0.00000     0.37432    0.00046     0.37478
      C   20   -0.34748      0.99974     2.34245    0.00529     3.34748
      H   21    0.12457      0.00000     0.37524    0.00018     0.37543
      H   22    0.12218      0.00000     0.37753    0.00030     0.37782
      H   23    0.12218      0.00000     0.37753    0.00030     0.37782
      C   24   -0.06798      0.99959     2.06204    0.00635     3.06798
      C   25   -0.34786      0.99974     2.34289    0.00523     3.34786
      H   26    0.12287      0.00000     0.37689    0.00024     0.37713
      H   27    0.12513      0.00000     0.37469    0.00018     0.37487
      H   28    0.12287      0.00000     0.37689    0.00024     0.37713
      C   29   -0.33909      0.99973     2.33457    0.00479     3.33909
      H   30    0.12200      0.00000     0.37779    0.00021     0.37800
      H   31    0.12232      0.00000     0.37745    0.00022     0.37768
      H   32    0.12247      0.00000     0.37735    0.00018     0.37753
      C   33   -0.33909      0.99973     2.33457    0.00479     3.33909
      H   34    0.12200      0.00000     0.37779    0.00021     0.37800
      H   35    0.12247      0.00000     0.37735    0.00018     0.37753
      H   36    0.12232      0.00000     0.37745    0.00022     0.37768
 =======================================================================
   * Total *    0.00000     15.99453    43.86806    0.13741    60.00000

 Normal termination of Gaussian 16 at Wed Apr  9 18:38:04 2025.

 ----------------------------------------------------------------------
 #p M062X/6-31+G(d) freq int(grid=ultrafine) scf(xqc,fermi,maxcyc=200)
 scrf(check) guess(read) geom(allcheck)
 ----------------------------------------------------------------------

 Structure from the checkpoint file:  "Q-AR.chk"

 Charge = -1 Multiplicity = 2

 SCF Done:  E(UM062X) =  -695.824337883     A.U. after    1 cycles

  Exact polarizability: 310.977  -7.852 304.261   0.000   0.000 196.911
 Approx polarizability: 233.587 -10.630 234.432   0.000   0.000 162.873

                      1                      2                      3
                      A                      A                      A
 Frequencies --     35.0823                41.9226                80.2085
 Red. masses --      2.9072                 3.3374                 5.0945
 Frc consts  --      0.0021                 0.0035                 0.0193
 IR Inten    --      1.7573                 0.4112                 0.4568

                      4                      5                      6
                      A                      A                      A
 Frequencies --    111.5263               144.4180               166.1867
 Red. masses --      3.7808                 3.5429                 2.4174
 Frc consts  --      0.0277                 0.0435                 0.0393
 IR Inten    --      6.4260                 4.7988                 0.0020

                      7                      8                      9
                      A                      A                      A
 Frequencies --    212.5519               231.8564               242.0202
 Red. masses --      1.3419                 2.8354                 1.1719
 Frc consts  --      0.0357                 0.0898                 0.0404
 IR Inten    --      0.0969                10.3093                 1.3753

                     10                     11                     12
                      A                      A                      A
 Frequencies --    245.5387               261.9845               277.5324
 Red. masses --      1.5031                 2.1271                 2.3602
 Frc consts  --      0.0534                 0.0860                 0.1071
 IR Inten    --      2.6828                 0.8628                 4.1378

                     13                     14                     15
                      A                      A                      A
 Frequencies --    291.5461               323.7664               333.5635
 Red. masses --      1.1339                 2.3878                 2.9815
 Frc consts  --      0.0568                 0.1475                 0.1955
 IR Inten    --      0.4780                 3.2947                 4.0460

                     16                     17                     18
                      A                      A                      A
 Frequencies --    333.6326               357.7359               364.3279
 Red. masses --      2.7426                 2.8684                 1.0737
 Frc consts  --      0.1799                 0.2163                 0.0840
 IR Inten    --      0.1649                 4.7643                 0.0103

                     19                     20                     21
                      A                      A                      A
 Frequencies --    370.0485               382.0004               403.5458
 Red. masses --      1.1625                 2.0154                 5.0786
 Frc consts  --      0.0938                 0.1733                 0.4873
 IR Inten    --      0.0657                 0.4585                 3.5690

                     22                     23                     24
                      A                      A                      A
 Frequencies --    414.3279               430.6852               442.3750
 Red. masses --      2.3974                 4.0052                 3.2949
 Frc consts  --      0.2425                 0.4377                 0.3799
 IR Inten    --      0.0440                 4.5508                 5.1975

                     25                     26                     27
                      A                      A                      A
 Frequencies --    447.6021               499.3899               539.1595
 Red. masses --      3.9401                 3.1567                 3.8490
 Frc consts  --      0.4651                 0.4638                 0.6592
 IR Inten    --      2.6631                22.7161                 5.9169

                     28                     29                     30
                      A                      A                      A
 Frequencies --    575.4571               615.5525               669.1556
 Red. masses --      3.0320                 4.5743                 3.5507
 Frc consts  --      0.5916                 1.0212                 0.9367
 IR Inten    --      9.2182                14.2045                11.4670

                     31                     32                     33
                      A                      A                      A
 Frequencies --    671.5571               759.6314               787.6847
 Red. masses --      5.3165                 5.1231                 6.6326
 Frc consts  --      1.4127                 1.7418                 2.4246
 IR Inten    --     16.9238                16.8081                 8.9376

                     34                     35                     36
                      A                      A                      A
 Frequencies --    818.0012               849.4438               889.0857
 Red. masses --      4.4010                 2.9204                 1.4773
 Frc consts  --      1.7350                 1.2416                 0.6880
 IR Inten    --      5.4451                 5.2827                68.4818

                     37                     38                     39
                      A                      A                      A
 Frequencies --    907.3410               934.0115               953.0774
 Red. masses --      1.4389                 2.5060                 1.6103
 Frc consts  --      0.6979                 1.2881                 0.8618
 IR Inten    --      6.2898                33.2887                 3.1367

                     40                     41                     42
                      A                      A                      A
 Frequencies --    955.6826               957.5080               962.9872
 Red. masses --      1.6169                 1.6303                 1.5828
 Frc consts  --      0.8701                 0.8806                 0.8648
 IR Inten    --      2.9063                 3.3466                 0.7813

                     43                     44                     45
                      A                      A                      A
 Frequencies --    967.1022               969.8758              1001.8239
 Red. masses --      1.1951                 1.2026                 3.4180
 Frc consts  --      0.6586                 0.6665                 2.0212
 IR Inten    --      0.0499                 0.3847                54.4003

                     46                     47                     48
                      A                      A                      A
 Frequencies --   1054.8283              1055.2700              1056.2716
 Red. masses --      1.3833                 1.3936                 1.3840
 Frc consts  --      0.9069                 0.9144                 0.9098
 IR Inten    --      0.1216                 0.0398                 0.0066

                     49                     50                     51
                      A                      A                      A
 Frequencies --   1056.8184              1142.4681              1213.0777
 Red. masses --      1.4475                 1.9629                 2.7072
 Frc consts  --      0.9525                 1.5095                 2.3472
 IR Inten    --      2.9442                27.2902                 2.6951

                     52                     53                     54
                      A                      A                      A
 Frequencies --   1244.8617              1246.2777              1246.7794
 Red. masses --      2.8802                 2.9282                 2.4760
 Frc consts  --      2.6298                 2.6797                 2.2677
 IR Inten    --     10.0479                 2.1616                32.0560

                     55                     56                     57
                      A                      A                      A
 Frequencies --   1253.1405              1289.7298              1292.7204
 Red. masses --      2.7205                 2.9396                 2.3169
 Frc consts  --      2.5171                 2.8810                 2.2812
 IR Inten    --      5.6138                36.1804                 6.7370

                     58                     59                     60
                      A                      A                      A
 Frequencies --   1322.3604              1382.9716              1400.5544
 Red. masses --      3.4977                 2.0309                 1.2567
 Frc consts  --      3.6035                 2.2886                 1.4523
 IR Inten    --      9.6273                 9.6078                11.7061

                     61                     62                     63
                      A                      A                      A
 Frequencies --   1405.4497              1408.6049              1413.2958
 Red. masses --      1.4073                 1.2474                 1.3669
 Frc consts  --      1.6378                 1.4583                 1.6086
 IR Inten    --     40.5397                 9.3113                 0.4597

                     64                     65                     66
                      A                      A                      A
 Frequencies --   1423.2811              1430.0514              1432.8366
 Red. masses --      2.3639                 1.4094                 1.2506
 Frc consts  --      2.8214                 1.6982                 1.5127
 IR Inten    --     66.5612                 8.7804                 0.5317

                     67                     68                     69
                      A                      A                      A
 Frequencies --   1489.8086              1493.3702              1496.9873
 Red. masses --      1.0470                 1.0463                 1.0470
 Frc consts  --      1.3692                 1.3748                 1.3824
 IR Inten    --      0.0682                 0.0331                 0.6998

                     70                     71                     72
                      A                      A                      A
 Frequencies --   1498.8359              1501.2070              1501.2901
 Red. masses --      1.0707                 1.1161                 1.0452
 Frc consts  --      1.4172                 1.4820                 1.3879
 IR Inten    --      8.4516                84.5827                 0.2419

                     73                     74                     75
                      A                      A                      A
 Frequencies --   1502.0785              1507.2487              1512.5772
 Red. masses --      1.0500                 1.0888                 1.0523
 Frc consts  --      1.3958                 1.4573                 1.4185
 IR Inten    --      1.3343                48.2543                10.2563

                     76                     77                     78
                      A                      A                      A
 Frequencies --   1514.5930              1516.4118              1521.9316
 Red. masses --      1.0520                 3.7450                 1.1494
 Frc consts  --      1.4218                 5.0739                 1.5685
 IR Inten    --     12.4369               576.4011                76.0415

                     79                     80                     81
                      A                      A                      A
 Frequencies --   1524.9589              1538.2231              1595.2678
 Red. masses --      1.1468                 6.0810                 7.8648
 Frc consts  --      1.5713                 8.4775                11.7924
 IR Inten    --     65.4198               839.2352               338.4900

                     82                     83                     84
                      A                      A                      A
 Frequencies --   1650.2225              3066.2343              3066.5690
 Red. masses --      5.0652                 1.0362                 1.0381
 Frc consts  --      8.1270                 5.7397                 5.7515
 IR Inten    --    126.1911                32.3639                55.1668

                     85                     86                     87
                      A                      A                      A
 Frequencies --   3066.6683              3066.9522              3072.5562
 Red. masses --      1.0354                 1.0355                 1.0386
 Frc consts  --      5.7374                 5.7385                 5.7768
 IR Inten    --     89.3479                48.2828                60.4716

                     88                     89                     90
                      A                      A                      A
 Frequencies --   3072.9415              3130.6664              3131.0036
 Red. masses --      1.0366                 1.1027                 1.1021
 Frc consts  --      5.7675                 6.3675                 6.3654
 IR Inten    --     39.0463                25.7759                64.6090

                     91                     92                     93
                      A                      A                      A
 Frequencies --   3137.0013              3137.4520              3141.3317
 Red. masses --      1.1030                 1.1027                 1.1017
 Frc consts  --      6.3953                 6.3951                 6.4056
 IR Inten    --     15.8815                45.7098                96.6834

                     94                     95                     96
                      A                      A                      A
 Frequencies --   3141.5034              3142.5299              3143.8140
 Red. masses --      1.1028                 1.1029                 1.1018
 Frc consts  --      6.4125                 6.4173                 6.4159
 IR Inten    --    105.7400                22.0131               116.4584

                     97                     98                     99
                      A                      A                      A
 Frequencies --   3151.1623              3152.2340              3175.3709
 Red. masses --      1.1023                 1.1017                 1.0994
 Frc consts  --      6.4490                 6.4497                 6.5313
 IR Inten    --      8.4500                83.3563                 0.1125

                    100                    101                    102
                      A                      A                      A
 Frequencies --   3176.1744              3206.5919              3276.2263
 Red. masses --      1.0988                 1.0904                 1.0874
 Frc consts  --      6.5312                 6.6057                 6.8769
 IR Inten    --     47.2259                20.4614                 3.5034

 - Thermochemistry -
 -------------------
 Temperature   298.150 Kelvin.  Pressure   1.00000 Atm.
 Atom     1 has atomic number  6 and mass  12.00000

 Molecular mass:   220.14633 amu.
 Principal axes and moments of inertia in atomic units:
                           1         2         3
     Eigenvalues --  2425.610954680.086816312.57320
           X            0.99980   0.02017   0.00000
           Y           -0.02017   0.99980   0.00000
           Z            0.00000   0.00000   1.00000
 This molecule is an asymmetric top.
 Rotational symmetry number  1.
 Warning -- assumption of classical behavior for rotation
           may cause significant error
 Rotational temperatures (Kelvin)      0.03571     0.01851     0.01372
 Rotational constants (GHZ):           0.74404     0.38562     0.28590
 Zero-point vibrational energy     819568.5 (Joules/Mol)
                                  195.88158 (Kcal/Mol)
 Warning -- explicit consideration of  29 degrees of freedom as
           vibrations may cause significant error
 Vibrational temperatures:     50.48    60.32   115.40   160.46   207.79
          (Kelvin)            239.11   305.81   333.59   348.21   353.28
                              376.94   399.31   419.47   465.83   479.92
                              480.02   514.70   524.19   532.42   549.61
                              580.61   596.13   619.66   636.48   644.00
                              718.51   775.73   827.95   885.64   962.77
                              966.22  1092.94  1133.30  1176.92  1222.16
                             1279.20  1305.46  1343.83  1371.27  1375.01
                             1377.64  1385.52  1391.44  1395.43  1441.40
                             1517.66  1518.30  1519.74  1520.53  1643.76
                             1745.35  1791.08  1793.12  1793.84  1802.99
                             1855.63  1859.94  1902.58  1989.79  2015.09
                             2022.13  2026.67  2033.42  2047.78  2057.53
                             2061.53  2143.50  2148.63  2153.83  2156.49
                             2159.90  2160.02  2161.16  2168.59  2176.26
                             2179.16  2181.78  2189.72  2194.08  2213.16
                             2295.23  2374.30  4411.63  4412.11  4412.25
                             4412.66  4420.72  4421.28  4504.33  4504.82
                             4513.45  4514.09  4519.68  4519.92  4521.40
                             4523.25  4533.82  4535.36  4568.65  4569.81
                             4613.57  4713.76

 Zero-point correction=                           0.312157 (Hartree/Particle)
 Thermal correction to Energy=                    0.328924
 Thermal correction to Enthalpy=                  0.329868
 Thermal correction to Gibbs Free Energy=         0.268382
 Sum of electronic and zero-point Energies=           -695.512181
 Sum of electronic and thermal Energies=              -695.495414
 Sum of electronic and thermal Enthalpies=            -695.494470
 Sum of electronic and thermal Free Energies=         -695.555956

                     E (Thermal)             CV                S
                      KCal/Mol        Cal/Mol-Kelvin    Cal/Mol-Kelvin
 Total                  206.403             65.991            129.408
 Electronic               0.000              0.000              1.377
 Translational            0.889              2.981             42.070
 Rotational               0.889              2.981             32.638
 Vibrational            204.625             60.030             53.322
 Vibration     1          0.594              1.982              5.519
 Vibration     2          0.595              1.980              5.166
 Vibration     3          0.600              1.963              3.886
 Vibration     4          0.607              1.940              3.242
 Vibration     5          0.616              1.909              2.744
 Vibration     6          0.624              1.884              2.478
 Vibration     7          0.644              1.822              2.022
 Vibration     8          0.653              1.792              1.865
 Vibration     9          0.658              1.776              1.788
 Vibration    10          0.660              1.770              1.762
 Vibration    11          0.669              1.742              1.649
 Vibration    12          0.679              1.715              1.549
 Vibration    13          0.687              1.689              1.465
 Vibration    14          0.708              1.628              1.291
 Vibration    15          0.715              1.608              1.243
 Vibration    16          0.715              1.608              1.242
 Vibration    17          0.733              1.559              1.132
 Vibration    18          0.738              1.546              1.104
 Vibration    19          0.742              1.534              1.080
 Vibration    20          0.751              1.509              1.031
 Vibration    21          0.769              1.462              0.950
 Vibration    22          0.778              1.439              0.911
 Vibration    23          0.792              1.403              0.856
 Vibration    24          0.802              1.378              0.819
 Vibration    25          0.807              1.366              0.803
 Vibration    26          0.855              1.251              0.660
 Vibration    27          0.894              1.163              0.567
 Vibration    28          0.932              1.084              0.494
 Vibration    29          0.975              0.999              0.424

 Optimization completed.
    -- Stationary point found.
 Normal termination of Gaussian 16 at Wed Apr  9 19:03:59 2025.
 Gaussian 16:  ES64L-G16RevA.03 25-Dec-2016

 ----------------------------------------------------------------------
 #p M062X/6-31+G(d) td(nstates=10) int(grid=ultrafine) scf(xqc,fermi,ma
 xcyc=200) scrf(check) guess(read) geom(allcheck)
 ----------------------------------------------------------------------

 Structure from the checkpoint file:  "Q-AR.chk"

 Charge = -1 Multiplicity = 2

                         Standard orientation:
 ---------------------------------------------------------------------
 Center     Atomic      Atomic             Coordinates (Angstroms)
 Number     Number       Type             X           Y           Z
 ---------------------------------------------------------------------
      1          6           0        1.279460    1.457569   -0.000002
      2          6           0        1.369014    0.083593    0.000000
      3          6           0        0.022075    2.133518   -0.000004
      4          6           0       -1.225215    1.321216   -0.000006
      5          6           0       -1.104267   -0.126508   -0.000001
      6          6           0        0.158362   -0.681775    0.000000
      7          1           0        0.248340   -1.760101    0.000003
      8          1           0        2.170497    2.082727   -0.000002
      9          8           0       -0.063848    3.405306   -0.000005
     10          8           0       -2.336945    1.933408   -0.000003
     11          6           0       -2.366375   -0.996351    0.000001
     12          6           0       -3.204305   -0.715393    1.260783
     13          1           0       -2.627377   -0.947835    2.163961
     14          1           0       -4.098781   -1.350343    1.259206
     15          1           0       -3.523663    0.327506    1.314548
     16          6           0       -3.204308   -0.715396   -1.260779
     17          1           0       -4.098785   -1.350346   -1.259198
     18          1           0       -2.627383   -0.947841   -2.163957
     19          1           0       -3.523665    0.327503   -1.314546
     20          6           0       -2.034681   -2.493977    0.000003
     21          1           0       -2.970125   -3.064498    0.000006
     22          1           0       -1.464548   -2.787885    0.888845
     23          1           0       -1.464553   -2.787888   -0.888840
     24          6           0        2.745996   -0.592055    0.000001
     25          6           0        2.656860   -2.121995   -0.000009
     26          1           0        2.139634   -2.501063    0.888764
     27          1           0        3.669881   -2.539272   -0.000003
     28          1           0        2.139648   -2.501053   -0.888794
     29          6           0        3.526435   -0.158262   -1.252455
     30          1           0        4.512257   -0.638411   -1.264256
     31          1           0        3.677113    0.925877   -1.276084
     32          1           0        2.992831   -0.449810   -2.164636
     33          6           0        3.526426   -0.158278    1.252470
     34          1           0        4.512246   -0.638430    1.264274
     35          1           0        2.992813   -0.449835    2.164643
     36          1           0        3.677106    0.925860    1.276113
 ---------------------------------------------------------------------

 SCF Done:  E(UM062X) =  -695.824337883     A.U. after    1 cycles

 Excitation energies and oscillator strengths:

 Excited State   1:  2.062-A      2.0079 eV  617.47 nm  f=0.0000  <S**2>=0.813
     59B -> 61B        0.94633
     59B -> 70B       -0.12043
     59B -> 71B        0.11861
 This state for optimization and/or second-order correction.
 Total Energy, E(TD-HF/TD-DFT) =  -695.750547589
 Copying the excited state density for this state as the 1-particle RhoCI density.

 Excited State   2:  2.081-A      2.0470 eV  605.69 nm  f=0.0266  <S**2>=0.833
     60B -> 61B        0.98307

 Excited State   3:  2.106-A      2.8061 eV  441.85 nm  f=0.0000  <S**2>=0.859
     54B -> 61B       -0.15807
     56B -> 61B       -0.10054
     58B -> 61B        0.91163
     58B -> 70B       -0.14779
     59B -> 77B        0.13095

 Excited State   4:  2.106-A      3.8984 eV  318.03 nm  f=0.0083  <S**2>=0.859
     61A -> 65A        0.77821
     61A -> 66A       -0.31166
     61A -> 71A       -0.16922
     52B -> 61B        0.10699
     57B -> 61B        0.42778
     60B -> 77B       -0.10487

 Excited State   5:  2.382-A      4.2261 eV  293.37 nm  f=0.0625  <S**2>=1.168
     60A -> 65A        0.30576
     60A -> 66A       -0.17112
     61A -> 66A        0.19481
     61A -> 69A        0.58164
     61A -> 71A       -0.39494
     61A -> 72A       -0.31799
     51B -> 61B        0.21149
     55B -> 61B       -0.24427
     57B -> 61B       -0.13654
     60B -> 70B        0.16030
     60B -> 71B       -0.10176

 Excited State   6:  2.360-A      4.5142 eV  274.65 nm  f=0.2008  <S**2>=1.142
     60A -> 69A        0.28329
     60A -> 71A       -0.22619
     60A -> 72A       -0.15539
     61A -> 65A       -0.39402
     61A -> 66A        0.22481
     61A -> 69A        0.15036
     52B -> 61B        0.14791
     57B -> 61B        0.71422
     60B -> 77B       -0.10305

 Excited State   7:  2.030-A      4.5339 eV  273.46 nm  f=0.0000  <S**2>=0.780
     61A -> 62A        0.77075
     61A -> 63A        0.53758
     61A -> 64A       -0.11770
     61A -> 67A        0.20141
     61A -> 77A        0.11060

 Excited State   8:  2.609-A      4.8246 eV  256.98 nm  f=0.1446  <S**2>=1.451
     60A -> 65A       -0.33435
     60A -> 66A        0.15462
     61A -> 65A        0.15524
     61A -> 66A        0.13669
     61A -> 69A        0.39582
     61A -> 71A       -0.26048
     61A -> 72A       -0.16608
     51B -> 61B       -0.34044
     55B -> 61B        0.43879
     60B -> 68B       -0.12137
     60B -> 70B       -0.29265
     60B -> 71B        0.23151
     60B -> 74B        0.14522

 Excited State   9:  2.168-A      5.0839 eV  243.88 nm  f=0.0016  <S**2>=0.925
     42B -> 61B       -0.18827
     50B -> 61B        0.11567
     53B -> 61B       -0.30192
     56B -> 61B        0.84863
     58B -> 61B        0.10840
     59B -> 61B       -0.14208
     59B -> 70B       -0.13170

 Excited State  10:  2.037-A      5.2554 eV  235.92 nm  f=0.0000  <S**2>=0.787
     61A -> 62A       -0.45409
     61A -> 63A        0.56965
     61A -> 64A       -0.41866
     61A -> 67A        0.10488
     61A -> 68A        0.19289
     61A -> 70A       -0.42491
     61A -> 74A        0.15806

 The electronic state is 2-A.
 Alpha  occ. eigenvalues --  -19.61127 -19.60903 -10.60093 -10.59992 -10.55586
 Alpha  occ. eigenvalues --  -10.55480 -10.55385 -10.54626 -10.54063 -10.52939
 Alpha  occ. eigenvalues --  -10.52572 -10.52572 -10.52485 -10.52333 -10.52129
 Alpha  occ. eigenvalues --  -10.52129  -1.13872  -1.10565  -0.95145  -0.91926
 Alpha  occ. eigenvalues --   -0.88328  -0.81452  -0.78478  -0.76784  -0.76622
 Alpha  occ. eigenvalues --   -0.76510  -0.76246  -0.68267  -0.66795  -0.61479
 Alpha  occ. eigenvalues --   -0.59254  -0.55798  -0.55246  -0.52250  -0.51264
 Alpha  occ. eigenvalues --   -0.50609  -0.49656  -0.49548  -0.49286  -0.49205
 Alpha  occ. eigenvalues --   -0.47890  -0.45427  -0.45141  -0.44456  -0.43802
 Alpha  occ. eigenvalues --   -0.43113  -0.42293  -0.42275  -0.41845  -0.40949
 Alpha  occ. eigenvalues --   -0.39731  -0.39290  -0.38534  -0.38144  -0.37790
 Alpha  occ. eigenvalues --   -0.36175  -0.36154  -0.33436  -0.29854  -0.27311
 Alpha  occ. eigenvalues --   -0.21820
 Alpha virt. eigenvalues --    0.02459   0.03300   0.03525   0.03788   0.04420
 Alpha virt. eigenvalues --    0.04670   0.04778   0.04872   0.05203   0.05268
 Alpha virt. eigenvalues --    0.06991   0.07072   0.07189   0.07326   0.07404

  Beta  occ. eigenvalues --  -19.60602 -19.60439 -10.60024 -10.59926 -10.55594
  Beta  occ. eigenvalues --  -10.55397 -10.55390 -10.54605 -10.54012 -10.52956
  Beta  occ. eigenvalues --  -10.52564 -10.52563 -10.52484 -10.52333 -10.52126
  Beta  occ. eigenvalues --  -10.52126  -1.12598  -1.09184  -0.94823  -0.91846
  Beta  occ. eigenvalues --   -0.88070  -0.81273  -0.77750  -0.76745  -0.76586
  Beta  occ. eigenvalues --   -0.76491  -0.75984  -0.67953  -0.66499  -0.61124
  Beta  occ. eigenvalues --   -0.59111  -0.55468  -0.54891  -0.52013  -0.50928
  Beta  occ. eigenvalues --   -0.50084  -0.49583  -0.49301  -0.48642  -0.47815
  Beta  occ. eigenvalues --   -0.47218  -0.45126  -0.44864  -0.43651  -0.43617
  Beta  occ. eigenvalues --   -0.43022  -0.42159  -0.41833  -0.41645  -0.39541
  Beta  occ. eigenvalues --   -0.38732  -0.38625  -0.38407  -0.37671  -0.37397
  Beta  occ. eigenvalues --   -0.36011  -0.34454  -0.32712  -0.29231  -0.25841
  Beta virt. eigenvalues --   -0.06758   0.02334   0.03269   0.03532   0.04144
  Beta virt. eigenvalues --    0.04604   0.04791   0.05011   0.05092   0.05696
  Beta virt. eigenvalues --    0.06318   0.07079   0.07195   0.07355   0.07412

 Mulliken charges and spin densities:
               1          2
     1  C   -0.038130   0.010251
     2  C   -0.776649   0.106628
     3  C    0.450837   0.149602
     4  C    0.392901   0.114006
     5  C   -0.187201   0.069751
     6  C   -0.545774   0.081102
     7  H    0.217565  -0.005912
     8  H    0.232460  -0.001164
     9  O   -0.789176   0.208974
    10  O   -0.728059   0.244509
    11  C   -0.283254  -0.004159
    12  C   -0.572767   0.011261
    13  H    0.236003  -0.000073
    14  H    0.227814   0.000256
    15  H    0.247823  -0.000543
    16  C   -0.572767   0.011261
    17  H    0.227814   0.000256
    18  H    0.236003  -0.000073
    19  H    0.247823  -0.000543
    20  C   -0.443939   0.002747
    21  H    0.233534  -0.000176
    22  H    0.238015   0.000164
    23  H    0.238016   0.000164
    24  C   -0.039043   0.039383
    25  C   -0.492770  -0.008109
    26  H    0.239189   0.000131
    27  H    0.234115  -0.000426
    28  H    0.239190   0.000131
    29  C   -0.546921  -0.014204
    30  H    0.231865   0.000344
    31  H    0.239187  -0.000337
    32  H    0.241084  -0.000503
    33  C   -0.546923  -0.014204
    34  H    0.231865   0.000344
    35  H    0.241084  -0.000503
    36  H    0.239187  -0.000337
 Sum of Mulliken charges =  -1.00000   1.00000

 Dipole moment (field-independent basis, Debye):
    X=              6.7647    Y=            -15.3392    Z=              0.0000  Tot=             16.7646
 Quadrupole moment (field-independent basis, Debye-Ang):
   XX=           -113.3886   YY=           -147.6269   ZZ=           -104.7533
   XY=             14.0018   XZ=              0.0000   YZ=              0.0001

 Normal termination of Gaussian 16 at Wed Apr  9 19:23:23 2025.
