 Gaussian 16, Revision A.03,

 ----------------------------------------------------------------------
 #p M062X/6-31+G(d) opt(tight) int(grid=ultrafine) scf(xqc,fermi,maxcyc
 =200) scrf(smd,solvent=water)
 ----------------------------------------------------------------------

 (Enter /export/g16/l101.exe)

 Symbolic Z-matrix:
 Charge =  0 Multiplicity = 2

 SCF Done:  E(UM062X) =  -696.280241819     A.U. after   19 cycles
 SCF Done:  E(UM062X) =  -696.280755442     A.U. after   14 cycles
 SCF Done:  E(UM062X) =  -696.280799596     A.U. after   14 cycles
 SCF Done:  E(UM062X) =  -696.280806754     A.U. after   12 cycles
 SCF Done:  E(UM062X) =  -696.280807704     A.U. after   11 cycles
 SCF Done:  E(UM062X) =  -696.280807824     A.U. after   11 cycles
 SCF Done:  E(UM062X) =  -696.280807837     A.U. after   10 cycles
 SCF Done:  E(UM062X) =  -696.280807855     A.U. after   10 cycles
 SCF Done:  E(UM062X) =  -696.280807856     A.U. after    6 cycles
 SCF Done:  E(UM062X) =  -696.280807856     A.U. after    5 cycles
 Optimization completed.
    -- Stationary point found.
 Normal termination of Gaussian 16 at Wed Apr  9 18:24:24 2025.

 ----------------------------------------------------------------------
 #p M062X/6-31+G(d) stable(opt) pop(nbo) int(grid=ultrafine) scf(xqc,fe
 rmi,maxcyc=200) scrf(check) guess(read) geom(allcheck)
 ----------------------------------------------------------------------

 Structure from the checkpoint file:  "SQ-c2.chk"

 Charge =  0 Multiplicity = 2

 SCF Done:  E(UM062X) =  -696.280807856     A.U. after    1 cycles

 Summary of Natural Population Analysis:

                                       Natural Population
                Natural  -----------------------------------------------
    Atom  No    Charge         Core      Valence    Rydberg      Total
 -----------------------------------------------------------------------
      C    1   -0.22428      0.99949     2.21738    0.00742     3.22428
      C    2    0.19608      0.99955     1.79405    0.01032     2.80392
      C    3    0.28541      0.99943     1.70155    0.01361     2.71459
      C    4    0.22068      0.99952     1.76138    0.01843     2.77932
      C    5    0.06353      0.99949     1.92724    0.00974     2.93647
      C    6   -0.14888      0.99952     2.14217    0.00718     3.14888
      H    7    0.13386      0.00000     0.36550    0.00064     0.36614
      H    8    0.13994      0.00000     0.35956    0.00050     0.36006
      O    9   -0.32566      0.99988     3.31716    0.00862     4.32566
      H   10    0.27879      0.00000     0.22014    0.00107     0.22121
      O   11   -0.16518      0.99991     3.15963    0.00564     4.16518
      C   12   -0.06880      0.99959     2.06218    0.00703     3.06880
      C   13   -0.34106      0.99973     2.33650    0.00484     3.34106
      H   14    0.12289      0.00000     0.37693    0.00019     0.37711
      H   15    0.12356      0.00000     0.37626    0.00018     0.37644
      H   16    0.12577      0.00000     0.37384    0.00039     0.37423
      C   17   -0.34106      0.99973     2.33650    0.00484     3.34106
      H   18    0.12356      0.00000     0.37626    0.00018     0.37644
      H   19    0.12289      0.00000     0.37693    0.00019     0.37711
      H   20    0.12577      0.00000     0.37384    0.00039     0.37423
      C   21   -0.34852      0.99974     2.34345    0.00533     3.34852
      H   22    0.12684      0.00000     0.37300    0.00017     0.37316
      H   23    0.12396      0.00000     0.37578    0.00026     0.37604
      H   24    0.12396      0.00000     0.37578    0.00026     0.37604
      C   25   -0.07548      0.99959     2.06961    0.00628     3.07548
      C   26   -0.34924      0.99974     2.34417    0.00532     3.34924
      H   27    0.12454      0.00000     0.37522    0.00024     0.37546
      H   28    0.12745      0.00000     0.37239    0.00016     0.37255
      H   29    0.12454      0.00000     0.37522    0.00024     0.37546
      C   30   -0.33714      0.99973     2.33260    0.00482     3.33714
      H   31    0.12606      0.00000     0.37376    0.00018     0.37394
      H   32    0.12381      0.00000     0.37598    0.00022     0.37619
      H   33    0.12435      0.00000     0.37547    0.00018     0.37565
      C   34   -0.33714      0.99973     2.33260    0.00482     3.33714
      H   35    0.12606      0.00000     0.37376    0.00018     0.37394
      H   36    0.12435      0.00000     0.37547    0.00018     0.37565
      H   37    0.12381      0.00000     0.37598    0.00022     0.37619
 =======================================================================
   * Total *    0.50000     15.99437    43.87523    0.13040    60.00000

 Normal termination of Gaussian 16 at Wed Apr  9 18:37:19 2025.

 ----------------------------------------------------------------------
 #p M062X/6-31+G(d) freq int(grid=ultrafine) scf(xqc,fermi,maxcyc=200)
 scrf(check) guess(read) geom(allcheck)
 ----------------------------------------------------------------------

 Structure from the checkpoint file:  "SQ-c2.chk"

 Charge =  0 Multiplicity = 2

 SCF Done:  E(UM062X) =  -696.280807856     A.U. after    1 cycles

  Exact polarizability: 309.697 -19.035 274.157   0.000   0.000 188.239
 Approx polarizability: 237.544 -15.757 216.974   0.000   0.000 156.955

                      1                      2                      3
                      A                      A                      A
 Frequencies --     37.3946                49.3998                88.3250
 Red. masses --      2.8924                 2.9664                 5.5451
 Frc consts  --      0.0024                 0.0043                 0.0255
 IR Inten    --      0.3729                 0.0025                 2.6204

                      4                      5                      6
                      A                      A                      A
 Frequencies --    101.6852               144.9295               176.7202
 Red. masses --      3.4945                 3.5005                 2.1024
 Frc consts  --      0.0213                 0.0433                 0.0387
 IR Inten    --      0.0506                 0.8216                 2.2876

                      7                      8                      9
                      A                      A                      A
 Frequencies --    215.7012               221.9491               234.6917
 Red. masses --      1.4435                 3.6092                 1.2232
 Frc consts  --      0.0396                 0.1048                 0.0397
 IR Inten    --      1.2076                 0.1901                 0.0649

                     10                     11                     12
                      A                      A                      A
 Frequencies --    247.0917               259.8365               274.9680
 Red. masses --      1.4015                 1.9479                 2.2845
 Frc consts  --      0.0504                 0.0775                 0.1018
 IR Inten    --      0.0781                 0.4780                 0.1269

                     13                     14                     15
                      A                      A                      A
 Frequencies --    285.7562               316.5222               327.8633
 Red. masses --      1.1046                 2.4965                 2.7910
 Frc consts  --      0.0531                 0.1474                 0.1768
 IR Inten    --      0.0049                 2.8016                 1.1978

                     16                     17                     18
                      A                      A                      A
 Frequencies --    335.2713               349.5109               365.4352
 Red. masses --      3.0608                 3.7141                 1.0616
 Frc consts  --      0.2027                 0.2673                 0.0835
 IR Inten    --      1.3436                26.1348                 0.0489

                     19                     20                     21
                      A                      A                      A
 Frequencies --    365.8865               367.5190               380.2854
 Red. masses --      3.7802                 1.2218                 1.9376
 Frc consts  --      0.2982                 0.0972                 0.1651
 IR Inten    --     17.4862                 0.2080                 0.2620

                     22                     23                     24
                      A                      A                      A
 Frequencies --    408.2629               415.3655               432.4195
 Red. masses --      2.3186                 2.8331                 3.7708
 Frc consts  --      0.2277                 0.2880                 0.4154
 IR Inten    --      0.1354                 1.9483                 3.5767

                     25                     26                     27
                      A                      A                      A
 Frequencies --    438.8020               505.4220               532.5070
 Red. masses --      3.2704                 3.3290                 3.7788
 Frc consts  --      0.3710                 0.5010                 0.6313
 IR Inten    --      4.8389                10.7105                13.2278

                     28                     29                     30
                      A                      A                      A
 Frequencies --    537.3349               571.2950               592.0690
 Red. masses --      1.1008                 2.8073                 4.6655
 Frc consts  --      0.1873                 0.5398                 0.9636
 IR Inten    --    221.6925                 6.3870                 2.9421

                     31                     32                     33
                      A                      A                      A
 Frequencies --    659.9615               685.0983               759.7177
 Red. masses --      4.8733                 3.9657                 5.0144
 Frc consts  --      1.2506                 1.0967                 1.7052
 IR Inten    --      4.9379                 3.3680                11.6172

                     34                     35                     36
                      A                      A                      A
 Frequencies --    781.0599               829.6849               848.3468
 Red. masses --      7.6146                 3.7447                 3.2230
 Frc consts  --      2.7369                 1.5188                 1.3666
 IR Inten    --      9.0920                12.4258                15.2053

                     37                     38                     39
                      A                      A                      A
 Frequencies --    910.2990               923.9620               936.2368
 Red. masses --      1.3773                 1.4241                 2.6731
 Frc consts  --      0.6725                 0.7163                 1.3805
 IR Inten    --     59.6824                12.1450                27.1563

                     40                     41                     42
                      A                      A                      A
 Frequencies --    955.6727               958.5554               959.7388
 Red. masses --      1.6224                 1.6069                 1.6536
 Frc consts  --      0.8730                 0.8699                 0.8974
 IR Inten    --      4.7396                 5.7987                 0.6037

                     43                     44                     45
                      A                      A                      A
 Frequencies --    967.0936               969.3495               975.4411
 Red. masses --      1.5983                 1.1959                 1.2023
 Frc consts  --      0.8807                 0.6621                 0.6740
 IR Inten    --      0.1653                 0.0007                 0.8467

                     46                     47                     48
                      A                      A                      A
 Frequencies --    989.5833              1054.3349              1054.9836
 Red. masses --      3.3834                 1.3882                 1.3963
 Frc consts  --      1.9521                 0.9092                 0.9157
 IR Inten    --    121.2865                 0.3411                 7.1392

                     49                     50                     51
                      A                      A                      A
 Frequencies --   1055.4612              1058.7158              1129.0016
 Red. masses --      1.3885                 1.4426                 1.8775
 Frc consts  --      0.9114                 0.9527                 1.4100
 IR Inten    --      0.0895                 7.2731                55.1853

                     52                     53                     54
                      A                      A                      A
 Frequencies --   1200.7522              1224.1186              1241.0500
 Red. masses --      1.8303                 2.0809                 2.8881
 Frc consts  --      1.5548                 1.8371                 2.6208
 IR Inten    --     95.4383               311.9262                 5.4367

                     55                     56                     57
                      A                      A                      A
 Frequencies --   1244.4793              1252.0438              1255.8192
 Red. masses --      2.9003                 2.5614                 2.8279
 Frc consts  --      2.6464                 2.3657                 2.6277
 IR Inten    --      2.7409                11.0718                29.1650

                     58                     59                     60
                      A                      A                      A
 Frequencies --   1284.7670              1315.5908              1337.0212
 Red. masses --      2.9050                 1.8904                 4.1025
 Frc consts  --      2.8252                 1.9277                 4.3209
 IR Inten    --     14.4194                25.3522               112.7637

                     61                     62                     63
                      A                      A                      A
 Frequencies --   1367.4363              1402.0687              1406.3313
 Red. masses --      4.1555                 1.2446                 1.2937
 Frc consts  --      4.5782                 1.4415                 1.5075
 IR Inten    --    262.9711                10.2734                16.9876

                     64                     65                     66
                      A                      A                      A
 Frequencies --   1411.0553              1414.3762              1428.5625
 Red. masses --      1.2282                 1.3140                 1.4708
 Frc consts  --      1.4408                 1.5488                 1.7685
 IR Inten    --      7.8441                22.6565                22.7084

                     67                     68                     69
                      A                      A                      A
 Frequencies --   1435.1476              1437.2160              1483.9021
 Red. masses --      1.2492                 1.8694                 2.2815
 Frc consts  --      1.5159                 2.2751                 2.9599
 IR Inten    --      1.4453                34.6918               258.7081

                     70                     71                     72
                      A                      A                      A
 Frequencies --   1490.5445              1493.5953              1497.4501
 Red. masses --      1.0466                 1.0452                 1.0469
 Frc consts  --      1.3700                 1.3737                 1.3831
 IR Inten    --      0.1838                 0.0159                 0.7573

                     73                     74                     75
                      A                      A                      A
 Frequencies --   1499.1609              1499.3470              1501.7844
 Red. masses --      1.0451                 1.0549                 1.0804
 Frc consts  --      1.3839                 1.3972                 1.4356
 IR Inten    --      0.6714                 4.2276                 7.0727

                     76                     77                     78
                      A                      A                      A
 Frequencies --   1504.2872              1510.9199              1513.5184
 Red. masses --      1.1171                 1.1171                 1.0509
 Frc consts  --      1.4894                 1.5026                 1.4184
 IR Inten    --     49.1614                74.0127                11.3731

                     79                     80                     81
                      A                      A                      A
 Frequencies --   1515.0426              1523.3041              1524.7505
 Red. masses --      1.0504                 1.0726                 1.1169
 Frc consts  --      1.4205                 1.4665                 1.5299
 IR Inten    --     15.0159                25.2601                38.2408

                     82                     83                     84
                      A                      A                      A
 Frequencies --   1559.2655              1569.1237              1655.1877
 Red. masses --      3.9787                 8.5837                 5.4798
 Frc consts  --      5.6994                12.4520                 8.8453
 IR Inten    --    117.8957               426.2724               291.5817

                     85                     86                     87
                      A                      A                      A
 Frequencies --   3070.8024              3071.9083              3072.9062
 Red. masses --      1.0358                 1.0354                 1.0363
 Frc consts  --      5.7549                 5.7569                 5.7654
 IR Inten    --     34.3395                40.1302                 1.6141

                     88                     89                     90
                      A                      A                      A
 Frequencies --   3072.9315              3077.6099              3077.7894
 Red. masses --      1.0360                 1.0380                 1.0365
 Frc consts  --      5.7639                 5.7924                 5.7851
 IR Inten    --    124.5786                45.0042                28.3708

                     91                     92                     93
                      A                      A                      A
 Frequencies --   3140.0432              3140.0822              3145.6312
 Red. masses --      1.1031                 1.1026                 1.1034
 Frc consts  --      6.4080                 6.4057                 6.4330
 IR Inten    --     18.2091                43.0994                 0.7452

                     94                     95                     96
                      A                      A                      A
 Frequencies --   3145.7513              3146.0342              3147.4970
 Red. masses --      1.1031                 1.1031                 1.1033
 Frc consts  --      6.4315                 6.4325                 6.4395
 IR Inten    --     26.9928                82.7404                44.7766

                     97                     98                     99
                      A                      A                      A
 Frequencies --   3148.4146              3151.5522              3157.6269
 Red. masses --      1.1019                 1.1019                 1.1027
 Frc consts  --      6.4354                 6.4481                 6.4776
 IR Inten    --     86.4655                95.7524                 5.8571

                    100                    101                    102
                      A                      A                      A
 Frequencies --   3158.5565              3176.0995              3176.8747
 Red. masses --      1.1021                 1.1005                 1.0999
 Frc consts  --      6.4781                 6.5407                 6.5406
 IR Inten    --     78.2717                 0.3551                43.8871

                    103                    104                    105
                      A                      A                      A
 Frequencies --   3241.0037              3284.6715              3611.7841
 Red. masses --      1.0921                 1.0886                 1.0647
 Frc consts  --      6.7590                 6.9196                 8.1834
 IR Inten    --      2.0246                 0.4219               270.1352

 - Thermochemistry -
 -------------------
 Temperature   298.150 Kelvin.  Pressure   1.00000 Atm.
 Atom     1 has atomic number  6 and mass  12.00000

 Molecular mass:   221.15416 amu.
 Principal axes and moments of inertia in atomic units:
                           1         2         3
     Eigenvalues --  2461.044684656.869016323.34988
           X            0.99987   0.01604   0.00000
           Y           -0.01604   0.99987   0.00000
           Z            0.00000   0.00000   1.00000
 This molecule is an asymmetric top.
 Rotational symmetry number  1.
 Warning -- assumption of classical behavior for rotation
           may cause significant error
 Rotational temperatures (Kelvin)      0.03519     0.01860     0.01370
 Rotational constants (GHZ):           0.73332     0.38754     0.28541
 Zero-point vibrational energy     852082.7 (Joules/Mol)
                                  203.65266 (Kcal/Mol)
 Warning -- explicit consideration of  30 degrees of freedom as
           vibrations may cause significant error
 Vibrational temperatures:     53.80    71.08   127.08   146.30   208.52
          (Kelvin)            254.26   310.35   319.34   337.67   355.51
                              373.85   395.62   411.14   455.40   471.72
                              482.38   502.87   525.78   526.43   528.78
                              547.15   587.40   597.62   622.16   631.34
                              727.19   766.16   773.11   821.97   851.86
                              949.54   985.70  1093.06  1123.77  1193.73
                             1220.58  1309.72  1329.38  1347.04  1375.00
                             1379.15  1380.85  1391.43  1394.68  1403.44
                             1423.79  1516.95  1517.89  1518.57  1523.26
                             1624.38  1727.61  1761.23  1785.59  1790.53
                             1801.41  1806.84  1848.49  1892.84  1923.68
                             1967.44  2017.26  2023.40  2030.19  2034.97
                             2055.38  2064.86  2067.83  2135.00  2144.56
                             2148.95  2154.50  2156.96  2157.23  2160.73
                             2164.33  2173.88  2177.62  2179.81  2191.69
                             2193.78  2243.44  2257.62  2381.45  4418.20
                             4419.79  4421.23  4421.26  4427.99  4428.25
                             4517.82  4517.88  4525.86  4526.03  4526.44
                             4528.55  4529.87  4534.38  4543.12  4544.46
                             4569.70  4570.81  4663.08  4725.91  5196.55

 Zero-point correction=                           0.324541 (Hartree/Particle)
 Thermal correction to Energy=                    0.341620
 Thermal correction to Enthalpy=                  0.342565
 Thermal correction to Gibbs Free Energy=         0.280788
 Sum of electronic and zero-point Energies=           -695.956267
 Sum of electronic and thermal Energies=              -695.939187
 Sum of electronic and thermal Enthalpies=            -695.938243
 Sum of electronic and thermal Free Energies=         -696.000020

                     E (Thermal)             CV                S
                      KCal/Mol        Cal/Mol-Kelvin    Cal/Mol-Kelvin
 Total                  214.370             67.576            130.020
 Electronic               0.000              0.000              1.377
 Translational            0.889              2.981             42.084
 Rotational               0.889              2.981             32.649
 Vibrational            212.593             61.614             53.910
 Vibration     1          0.594              1.982              5.393
 Vibration     2          0.595              1.978              4.841
 Vibration     3          0.601              1.957              3.697
 Vibration     4          0.604              1.948              3.422
 Vibration     5          0.616              1.908              2.738
 Vibration     6          0.628              1.871              2.363
 Vibration     7          0.645              1.817              1.995
 Vibration     8          0.648              1.808              1.943
 Vibration     9          0.655              1.788              1.843
 Vibration    10          0.661              1.768              1.751
 Vibration    11          0.668              1.746              1.663
 Vibration    12          0.677              1.720              1.565
 Vibration    13          0.684              1.700              1.499
 Vibration    14          0.703              1.642              1.328
 Vibration    15          0.711              1.620              1.271
 Vibration    16          0.716              1.605              1.235
 Vibration    17          0.727              1.576              1.168
 Vibration    18          0.739              1.543              1.099
 Vibration    19          0.739              1.542              1.097
 Vibration    20          0.740              1.539              1.090
 Vibration    21          0.750              1.512              1.038
 Vibration    22          0.773              1.452              0.933
 Vibration    23          0.779              1.437              0.908
 Vibration    24          0.793              1.400              0.851
 Vibration    25          0.799              1.386              0.830
 Vibration    26          0.861              1.238              0.645
 Vibration    27          0.887              1.178              0.582
 Vibration    28          0.892              1.167              0.571
 Vibration    29          0.927              1.093              0.502
 Vibration    30          0.950              1.049              0.463

 Optimization completed.
    -- Stationary point found.
 Normal termination of Gaussian 16 at Wed Apr  9 19:04:16 2025.
 Gaussian 16:  ES64L-G16RevA.03 25-Dec-2016

 ----------------------------------------------------------------------
 #p M062X/6-31+G(d) td(nstates=10) int(grid=ultrafine) scf(xqc,fermi,ma
 xcyc=200) scrf(check) guess(read) geom(allcheck)
 ----------------------------------------------------------------------

 Structure from the checkpoint file:  "SQ-c2.chk"

 Charge =  0 Multiplicity = 2

                         Standard orientation:
 ---------------------------------------------------------------------
 Center     Atomic      Atomic             Coordinates (Angstroms)
 Number     Number       Type             X           Y           Z
 ---------------------------------------------------------------------
      1          6           0        1.277330    1.446732    0.000007
      2          6           0        1.369870    0.049690    0.000001
      3          6           0        0.031952    2.036649    0.000008
      4          6           0       -1.207016    1.260225    0.000003
      5          6           0       -1.093709   -0.189859   -0.000002
      6          6           0        0.174499   -0.728257   -0.000002
      7          1           0        0.278580   -1.804994   -0.000007
      8          1           0        2.160213    2.079260    0.000011
      9          8           0       -0.100862    3.372490    0.000013
     10          1           0       -1.062583    3.567095    0.000012
     11          8           0       -2.285993    1.912279    0.000004
     12          6           0       -2.355762   -1.047851   -0.000007
     13          6           0       -3.187938   -0.750171    1.261141
     14          1           0       -2.609930   -0.973010    2.165434
     15          1           0       -4.081367   -1.385405    1.264184
     16          1           0       -3.508678    0.293160    1.302433
     17          6           0       -3.187936   -0.750159   -1.261153
     18          1           0       -4.081365   -1.385394   -1.264203
     19          1           0       -2.609927   -0.972989   -2.165447
     20          1           0       -3.508676    0.293172   -1.302435
     21          6           0       -2.025423   -2.544313   -0.000013
     22          1           0       -2.961821   -3.112265   -0.000018
     23          1           0       -1.455887   -2.836980    0.889382
     24          1           0       -1.455884   -2.836971   -0.889410
     25          6           0        2.751103   -0.599531    0.000001
     26          6           0        2.688676   -2.129742    0.000022
     27          1           0        2.179788   -2.517372    0.889539
     28          1           0        3.709746   -2.525286    0.000007
     29          1           0        2.179753   -2.517394   -0.889466
     30          6           0        3.517473   -0.144619   -1.255393
     31          1           0        4.509106   -0.611059   -1.265853
     32          1           0        3.653513    0.941197   -1.276602
     33          1           0        2.986991   -0.444218   -2.166244
     34          6           0        3.517485   -0.144585    1.255374
     35          1           0        4.509122   -0.611017    1.265833
     36          1           0        2.987017   -0.444167    2.166239
     37          1           0        3.653517    0.941233    1.276557
 ---------------------------------------------------------------------

 SCF Done:  E(UM062X) =  -696.280807856     A.U. after    1 cycles

 Excitation energies and oscillator strengths:

 Excited State   1:  2.079-A      1.8883 eV  656.60 nm  f=0.0000  <S**2>=0.830
     52B -> 61B       -0.15627
     54B -> 61B       -0.19292
     59B -> 61B        0.91855
     59B -> 65B       -0.11079
     59B -> 71B       -0.15016
 This state for optimization and/or second-order correction.
 Total Energy, E(TD-HF/TD-DFT) =  -696.211414989
 Copying the excited state density for this state as the 1-particle RhoCI density.

 Excited State   2:  2.051-A      1.9675 eV  630.17 nm  f=0.0144  <S**2>=0.802
     60B -> 61B        0.98597

 Excited State   3:  2.110-A      3.6848 eV  336.48 nm  f=0.0552  <S**2>=0.863
     60A -> 64A        0.13842
     61A -> 62A        0.43007
     61A -> 64A        0.21589
     53B -> 61B        0.28205
     58B -> 61B        0.77615

 Excited State   4:  2.086-A      4.2872 eV  289.19 nm  f=0.0020  <S**2>=0.838
     44B -> 61B        0.18991
     52B -> 61B       -0.12158
     54B -> 61B       -0.29248
     56B -> 61B        0.19097
     57B -> 61B        0.86772
     59B -> 61B       -0.13847

 Excited State   5:  2.766-A      4.5279 eV  273.82 nm  f=0.0897  <S**2>=1.662
     60A -> 62A        0.44148
     60A -> 64A       -0.30650
     61A -> 62A        0.25045
     61A -> 64A        0.54326
     61A -> 72A       -0.10159
     43B -> 61B        0.11123
     49B -> 61B       -0.15483
     51B -> 61B        0.18625
     55B -> 61B        0.10123
     58B -> 61B       -0.23411
     60B -> 65B        0.31044
     60B -> 66B       -0.16404
     60B -> 73B       -0.10288

 Excited State   6:  2.062-A      4.6162 eV  268.58 nm  f=0.1081  <S**2>=0.813
     60A -> 62A       -0.10135
     60A -> 64A       -0.19569
     61A -> 62A        0.78456
     61A -> 64A       -0.47474
     58B -> 61B       -0.25153

 Excited State   7:  2.123-A      5.0000 eV  247.97 nm  f=0.0000  <S**2>=0.877
     46B -> 61B        0.36566
     48B -> 61B       -0.14818
     52B -> 61B        0.45664
     56B -> 61B        0.70504
     59B -> 61B        0.21813
     59B -> 65B        0.12957

 Excited State   8:  2.268-A      5.0435 eV  245.83 nm  f=0.1756  <S**2>=1.036
     60A -> 62A       -0.15602
     61A -> 62A        0.22737
     61A -> 64A        0.52513
     43B -> 61B       -0.19497
     49B -> 61B        0.30414
     51B -> 61B       -0.39542
     53B -> 61B       -0.14512
     55B -> 61B       -0.40236
     58B -> 61B       -0.16845
     60B -> 65B       -0.22754
     60B -> 66B        0.11949

 Excited State   9:  2.713-A      5.2036 eV  238.27 nm  f=0.0709  <S**2>=1.590
     60A -> 62A       -0.45594
     61A -> 64A        0.25154
     49B -> 61B       -0.15908
     51B -> 61B        0.20140
     53B -> 61B        0.22529
     55B -> 61B        0.48995
     58B -> 61B       -0.36139
     60B -> 65B       -0.34806
     60B -> 66B        0.17330

 Excited State  10:  2.089-A      5.2895 eV  234.40 nm  f=0.0006  <S**2>=0.841
     61A -> 63A       -0.12116
     44B -> 61B       -0.16415
     47B -> 61B        0.14684
     52B -> 61B        0.24904
     54B -> 61B        0.72010
     56B -> 61B       -0.24406
     57B -> 61B        0.42084
     59B -> 61B        0.21234

 The electronic state is 2-A.
 Alpha  occ. eigenvalues --  -19.69456 -19.64922 -10.63606 -10.63332 -10.58667
 Alpha  occ. eigenvalues --  -10.57324 -10.56520 -10.56338 -10.55743 -10.55520
 Alpha  occ. eigenvalues --  -10.53132 -10.53131 -10.52897 -10.52771 -10.52717
 Alpha  occ. eigenvalues --  -10.52716  -1.21609  -1.15885  -0.97699  -0.93200
 Alpha  occ. eigenvalues --   -0.90434  -0.84555  -0.81451  -0.77551  -0.77373
 Alpha  occ. eigenvalues --   -0.77107  -0.77099  -0.71305  -0.70120  -0.66228
 Alpha  occ. eigenvalues --   -0.62284  -0.59391  -0.57846  -0.55865  -0.53781
 Alpha  occ. eigenvalues --   -0.53740  -0.52540  -0.50632  -0.50575  -0.50219
 Alpha  occ. eigenvalues --   -0.49488  -0.48058  -0.47653  -0.46037  -0.45735
 Alpha  occ. eigenvalues --   -0.45226  -0.44011  -0.43647  -0.43171  -0.42339
 Alpha  occ. eigenvalues --   -0.41934  -0.41138  -0.40810  -0.39496  -0.38931
 Alpha  occ. eigenvalues --   -0.38376  -0.37600  -0.36979  -0.34025  -0.30211
 Alpha  occ. eigenvalues --   -0.25864
 Alpha virt. eigenvalues --    0.01766   0.01849   0.02669   0.02811   0.03296
 Alpha virt. eigenvalues --    0.04083   0.04367   0.04526   0.04686   0.04926
 Alpha virt. eigenvalues --    0.06418   0.06733   0.06896   0.06927   0.07201

  Beta  occ. eigenvalues --  -19.69275 -19.64278 -10.63439 -10.63313 -10.58465
  Beta  occ. eigenvalues --  -10.57230 -10.56539 -10.56348 -10.55783 -10.55620
  Beta  occ. eigenvalues --  -10.53111 -10.53110 -10.52897 -10.52771 -10.52707
  Beta  occ. eigenvalues --  -10.52707  -1.20945  -1.14303  -0.97172  -0.93003
  Beta  occ. eigenvalues --   -0.90168  -0.84388  -0.80503  -0.77483  -0.77270
  Beta  occ. eigenvalues --   -0.77070  -0.77046  -0.70884  -0.69809  -0.65969
  Beta  occ. eigenvalues --   -0.62028  -0.59114  -0.57450  -0.55466  -0.53418
  Beta  occ. eigenvalues --   -0.52218  -0.51531  -0.50450  -0.50126  -0.50095
  Beta  occ. eigenvalues --   -0.49411  -0.47922  -0.45829  -0.45716  -0.45310
  Beta  occ. eigenvalues --   -0.45041  -0.43585  -0.43136  -0.42672  -0.42317
  Beta  occ. eigenvalues --   -0.41549  -0.40808  -0.39442  -0.39226  -0.38593
  Beta  occ. eigenvalues --   -0.38310  -0.36793  -0.36072  -0.33250  -0.29453
  Beta virt. eigenvalues --   -0.10243   0.01811   0.02816   0.03301   0.03688
  Beta virt. eigenvalues --    0.04034   0.04365   0.04531   0.04626   0.04771
  Beta virt. eigenvalues --    0.05434   0.06734   0.06741   0.06898   0.06938

 Mulliken charges and spin densities:
               1          2
     1  C   -0.177839  -0.168514
     2  C   -0.675449   0.377044
     3  C    0.401276   0.287916
     4  C    0.554313  -0.004339
     5  C   -0.219062   0.202291
     6  C   -0.588558  -0.066820
     7  H    0.238395  -0.000028
     8  H    0.272988   0.004075
     9  O   -0.687420   0.055835
    10  H    0.568313  -0.003663
    11  O   -0.658112   0.310144
    12  C   -0.151553  -0.008012
    13  C   -0.582516   0.012857
    14  H    0.242698  -0.000354
    15  H    0.235829   0.000792
    16  H    0.250683  -0.000849
    17  C   -0.582515   0.012857
    18  H    0.235829   0.000792
    19  H    0.242698  -0.000354
    20  H    0.250683  -0.000849
    21  C   -0.478254   0.001594
    22  H    0.239563  -0.000243
    23  H    0.243268   0.000148
    24  H    0.243268   0.000148
    25  C    0.024136  -0.002557
    26  C   -0.499628  -0.002994
    27  H    0.244148   0.000064
    28  H    0.240217  -0.000542
    29  H    0.244147   0.000064
    30  C   -0.568544  -0.004141
    31  H    0.240427   0.002640
    32  H    0.244725  -0.000738
    33  H    0.247618  -0.001012
    34  C   -0.568537  -0.004141
    35  H    0.240427   0.002640
    36  H    0.247618  -0.001012
    37  H    0.244723  -0.000738
 Sum of Mulliken charges =   0.00000   1.00000

 Dipole moment (field-independent basis, Debye):
    X=              3.8346    Y=             -3.7623    Z=              0.0000  Tot=              5.3721
 Quadrupole moment (field-independent basis, Debye-Ang):
   XX=            -98.2160   YY=           -102.2793   ZZ=           -101.8113
   XY=              3.8664   XZ=              0.0000   YZ=              0.0000

 Normal termination of Gaussian 16 at Wed Apr  9 19:24:32 2025.
