 Gaussian 16, Revision A.03,

 ----------------------------------------------------------------------
 #p M062X/6-31+G(d) opt(tight) int(grid=ultrafine) scf(xqc,fermi,maxcyc
 =200) scrf(smd,solvent=water)
 ----------------------------------------------------------------------

 (Enter /export/g16/l101.exe)

 Symbolic Z-matrix:
 Charge =  0 Multiplicity = 2

 SCF Done:  E(UM062X) =  -696.277049814     A.U. after   20 cycles
 SCF Done:  E(UM062X) =  -696.277591909     A.U. after   16 cycles
 SCF Done:  E(UM062X) =  -696.277648574     A.U. after   15 cycles
 SCF Done:  E(UM062X) =  -696.277657324     A.U. after   14 cycles
 SCF Done:  E(UM062X) =  -696.277658210     A.U. after   13 cycles
 SCF Done:  E(UM062X) =  -696.277658268     A.U. after   12 cycles
 SCF Done:  E(UM062X) =  -696.277658324     A.U. after   11 cycles
 SCF Done:  E(UM062X) =  -696.277658333     A.U. after   10 cycles
 SCF Done:  E(UM062X) =  -696.277658338     A.U. after    6 cycles
 SCF Done:  E(UM062X) =  -696.277658338     A.U. after    5 cycles
 SCF Done:  E(UM062X) =  -696.277658337     A.U. after    6 cycles
 SCF Done:  E(UM062X) =  -696.277658338     A.U. after    5 cycles
 Optimization completed.
    -- Stationary point found.
 Normal termination of Gaussian 16 at Wed Apr  9 18:28:27 2025.

 ----------------------------------------------------------------------
 #p M062X/6-31+G(d) stable(opt) pop(nbo) int(grid=ultrafine) scf(xqc,fe
 rmi,maxcyc=200) scrf(check) guess(read) geom(allcheck)
 ----------------------------------------------------------------------

 Structure from the checkpoint file:  "SQ-c1.chk"

 Charge =  0 Multiplicity = 2

 SCF Done:  E(UM062X) =  -696.277658338     A.U. after    1 cycles

 Summary of Natural Population Analysis:

                                       Natural Population
                Natural  -----------------------------------------------
    Atom  No    Charge         Core      Valence    Rydberg      Total
 -----------------------------------------------------------------------
      C    1   -0.10237      0.99948     2.09501    0.00788     3.10237
      C    2    0.00012      0.99954     1.99004    0.01030     2.99988
      C    3    0.21662      0.99955     1.76631    0.01751     2.78338
      C    4    0.33002      0.99940     1.65681    0.01377     2.66998
      C    5   -0.09935      0.99950     2.08930    0.01055     3.09935
      C    6    0.05571      0.99954     1.93839    0.00637     2.94429
      H    7    0.12835      0.00000     0.37105    0.00060     0.37165
      H    8    0.13286      0.00000     0.36662    0.00052     0.36714
      O    9   -0.18336      0.99991     3.17726    0.00619     4.18336
      O   10   -0.29944      0.99988     3.29111    0.00846     4.29944
      H   11    0.28074      0.00000     0.21813    0.00113     0.21926
      C   12   -0.05884      0.99960     2.05238    0.00687     3.05884
      C   13   -0.34631      0.99973     2.34171    0.00487     3.34631
      H   14    0.12354      0.00000     0.37628    0.00019     0.37646
      H   15    0.12336      0.00000     0.37645    0.00019     0.37664
      H   16    0.12554      0.00000     0.37411    0.00035     0.37446
      C   17   -0.34631      0.99973     2.34171    0.00487     3.34631
      H   18    0.12336      0.00000     0.37645    0.00019     0.37664
      H   19    0.12354      0.00000     0.37628    0.00019     0.37646
      H   20    0.12554      0.00000     0.37411    0.00035     0.37446
      C   21   -0.34865      0.99974     2.34353    0.00538     3.34865
      H   22    0.12739      0.00000     0.37243    0.00017     0.37261
      H   23    0.12411      0.00000     0.37563    0.00025     0.37589
      H   24    0.12411      0.00000     0.37563    0.00025     0.37589
      C   25   -0.06472      0.99959     2.05877    0.00636     3.06472
      C   26   -0.34936      0.99974     2.34430    0.00532     3.34936
      H   27    0.12398      0.00000     0.37579    0.00023     0.37602
      H   28    0.12725      0.00000     0.37257    0.00017     0.37275
      H   29    0.12398      0.00000     0.37579    0.00023     0.37602
      C   30   -0.34130      0.99973     2.33675    0.00481     3.34130
      H   31    0.12363      0.00000     0.37617    0.00020     0.37637
      H   32    0.12320      0.00000     0.37659    0.00020     0.37680
      H   33    0.12375      0.00000     0.37608    0.00017     0.37625
      C   34   -0.34130      0.99973     2.33675    0.00481     3.34130
      H   35    0.12363      0.00000     0.37617    0.00020     0.37637
      H   36    0.12375      0.00000     0.37608    0.00017     0.37625
      H   37    0.12320      0.00000     0.37659    0.00020     0.37680
 =======================================================================
   * Total *    0.50000     15.99441    43.87512    0.13047    60.00000

 Normal termination of Gaussian 16 at Wed Apr  9 18:40:49 2025.

 ----------------------------------------------------------------------
 #p M062X/6-31+G(d) freq int(grid=ultrafine) scf(xqc,fermi,maxcyc=200)
 scrf(check) guess(read) geom(allcheck)
 ----------------------------------------------------------------------

 Structure from the checkpoint file:  "SQ-c1.chk"

 Charge =  0 Multiplicity = 2

 SCF Done:  E(UM062X) =  -696.277658338     A.U. after    1 cycles

  Exact polarizability: 283.900  -9.338 294.605   0.000   0.001 187.739
 Approx polarizability: 217.932  -9.158 233.379   0.000   0.000 156.540

                      1                      2                      3
                      A                      A                      A
 Frequencies --     34.1983                54.3769                94.7076
 Red. masses --      2.9023                 2.9014                 5.3808
 Frc consts  --      0.0020                 0.0051                 0.0284
 IR Inten    --      0.4094                 0.5271                 0.4065

                      4                      5                      6
                      A                      A                      A
 Frequencies --    110.7608               144.4199               179.1802
 Red. masses --      3.6737                 3.5459                 2.5685
 Frc consts  --      0.0266                 0.0436                 0.0486
 IR Inten    --      1.1189                 0.6034                 1.7654

                      7                      8                      9
                      A                      A                      A
 Frequencies --    219.7418               232.3736               241.1329
 Red. masses --      1.3666                 3.9199                 1.1828
 Frc consts  --      0.0389                 0.1247                 0.0405
 IR Inten    --      0.3029                 2.0750                 0.7103

                     10                     11                     12
                      A                      A                      A
 Frequencies --    253.1676               264.5717               276.6315
 Red. masses --      1.6117                 1.6293                 2.1798
 Frc consts  --      0.0609                 0.0672                 0.0983
 IR Inten    --      0.1522                 0.8461                 0.1714

                     13                     14                     15
                      A                      A                      A
 Frequencies --    289.6538               322.6847               327.3985
 Red. masses --      1.1645                 2.3120                 3.0018
 Frc consts  --      0.0576                 0.1418                 0.1896
 IR Inten    --      0.4845                 0.9502                 0.5230

                     16                     17                     18
                      A                      A                      A
 Frequencies --    333.4744               347.5398               363.8865
 Red. masses --      2.7070                 4.1144                 3.1527
 Frc consts  --      0.1774                 0.2928                 0.2460
 IR Inten    --      0.0390                32.6592                14.9282

                     19                     20                     21
                      A                      A                      A
 Frequencies --    366.5764               373.1982               383.4020
 Red. masses --      1.1205                 1.4792                 1.4837
 Frc consts  --      0.0887                 0.1214                 0.1285
 IR Inten    --      0.1628                 0.1795                 0.1198

                     22                     23                     24
                      A                      A                      A
 Frequencies --    412.6262               422.2913               435.2875
 Red. masses --      2.2648                 3.0549                 3.5448
 Frc consts  --      0.2272                 0.3210                 0.3957
 IR Inten    --      0.7982                 2.5505                 0.0289

                     25                     26                     27
                      A                      A                      A
 Frequencies --    442.2850               499.3319               542.6644
 Red. masses --      2.9875                 3.0534                 3.7879
 Frc consts  --      0.3443                 0.4485                 0.6572
 IR Inten    --      4.6483                19.4550                 0.6040

                     28                     29                     30
                      A                      A                      A
 Frequencies --    578.5982               610.0534               656.2806
 Red. masses --      3.1032                 2.5788                 3.2608
 Frc consts  --      0.6121                 0.5655                 0.8275
 IR Inten    --      5.6113               122.4278                14.3706

                     31                     32                     33
                      A                      A                      A
 Frequencies --    662.3606               663.7872               753.4940
 Red. masses --      1.3533                 4.9092                 5.0206
 Frc consts  --      0.3498                 1.2744                 1.6794
 IR Inten    --    109.3425                 8.3386                24.2495

                     34                     35                     36
                      A                      A                      A
 Frequencies --    762.0345               819.9899               847.6546
 Red. masses --      5.6727                 4.5595                 2.8517
 Frc consts  --      1.9409                 1.8063                 1.2072
 IR Inten    --      0.4035                24.2918                 2.6059

                     37                     38                     39
                      A                      A                      A
 Frequencies --    899.7466               929.7136               931.9688
 Red. masses --      1.5472                 1.4551                 2.5009
 Frc consts  --      0.7380                 0.7410                 1.2798
 IR Inten    --     52.4186                 0.3869                21.7196

                     40                     41                     42
                      A                      A                      A
 Frequencies --    955.5729               958.2520               963.2595
 Red. masses --      1.6058                 1.6075                 1.6325
 Frc consts  --      0.8639                 0.8697                 0.8925
 IR Inten    --      3.5537                 3.0086                 2.5191

                     43                     44                     45
                      A                      A                      A
 Frequencies --    965.7322               972.6135               973.0532
 Red. masses --      1.5783                 1.1968                 1.2033
 Frc consts  --      0.8673                 0.6670                 0.6713
 IR Inten    --      0.4136                 0.0306                 0.4037

                     46                     47                     48
                      A                      A                      A
 Frequencies --    999.9777              1057.4918              1058.2085
 Red. masses --      2.9373                 1.3837                 1.4314
 Frc consts  --      1.7305                 0.9117                 0.9444
 IR Inten    --     73.0673                 0.5626                25.4965

                     49                     50                     51
                      A                      A                      A
 Frequencies --   1058.7475              1060.7916              1140.3551
 Red. masses --      1.3848                 1.3840                 2.0589
 Frc consts  --      0.9146                 0.9176                 1.5775
 IR Inten    --      0.0123                 0.0051                30.5223

                     52                     53                     54
                      A                      A                      A
 Frequencies --   1198.9524              1243.6107              1248.6691
 Red. masses --      1.9192                 2.7111                 2.9333
 Frc consts  --      1.6255                 2.4704                 2.6946
 IR Inten    --     87.1489                98.2313                 7.4001

                     55                     56                     57
                      A                      A                      A
 Frequencies --   1249.9024              1253.8489              1279.9346
 Red. masses --      2.8998                 2.5786                 2.3225
 Frc consts  --      2.6691                 2.3885                 2.2417
 IR Inten    --      4.8425                 2.7023               347.6752

                     58                     59                     60
                      A                      A                      A
 Frequencies --   1291.1538              1311.6669              1349.1293
 Red. masses --      2.7353                 2.4959                 2.2406
 Frc consts  --      2.6867                 2.5301                 2.4029
 IR Inten    --     42.1959                15.4523                46.3176

                     61                     62                     63
                      A                      A                      A
 Frequencies --   1393.5648              1408.4955              1409.0214
 Red. masses --      3.6123                 1.6835                 1.2457
 Frc consts  --      4.1333                 1.9678                 1.4572
 IR Inten    --     20.0172                70.0844                12.1074

                     64                     65                     66
                      A                      A                      A
 Frequencies --   1411.3001              1414.5838              1418.1309
 Red. masses --      1.2432                 1.3470                 1.4607
 Frc consts  --      1.4589                 1.5881                 1.7308
 IR Inten    --      9.1177                30.0464                72.5196

                     67                     68                     69
                      A                      A                      A
 Frequencies --   1427.4851              1435.6004              1440.0340
 Red. masses --      2.9422                 1.2573                 1.6693
 Frc consts  --      3.5324                 1.5267                 2.0395
 IR Inten    --    326.6589                 1.5787               194.1672

                     70                     71                     72
                      A                      A                      A
 Frequencies --   1492.2266              1493.6314              1496.8081
 Red. masses --      1.0456                 1.0453                 1.0472
 Frc consts  --      1.3718                 1.3740                 1.3823
 IR Inten    --      0.0040                 0.0000                 0.8112

                     73                     74                     75
                      A                      A                      A
 Frequencies --   1499.1273              1501.4363              1502.0576
 Red. masses --      1.0497                 1.0459                 1.0526
 Frc consts  --      1.3900                 1.3892                 1.3992
 IR Inten    --      1.8553                 0.2186                 1.9277

                     76                     77                     78
                      A                      A                      A
 Frequencies --   1508.6067              1509.6653              1513.5658
 Red. masses --      1.0626                 1.0760                 1.0519
 Frc consts  --      1.4249                 1.4448                 1.4198
 IR Inten    --     21.1212                 0.5235                12.4758

                     79                     80                     81
                      A                      A                      A
 Frequencies --   1518.3056              1522.1979              1526.0980
 Red. masses --      1.0521                 1.0717                 1.0696
 Frc consts  --      1.4290                 1.4631                 1.4677
 IR Inten    --     12.3994                25.6613                16.0583

                     82                     83                     84
                      A                      A                      A
 Frequencies --   1562.9922              1618.1521              1649.1633
 Red. masses --      9.0904                 4.7496                 4.8853
 Frc consts  --     13.0842                 7.3273                 7.8283
 IR Inten    --    498.0701                46.0305                71.8390

                     85                     86                     87
                      A                      A                      A
 Frequencies --   3069.2345              3070.2704              3071.3508
 Red. masses --      1.0355                 1.0351                 1.0358
 Frc consts  --      5.7474                 5.7488                 5.7567
 IR Inten    --     46.4250                59.5283                30.6376

                     88                     89                     90
                      A                      A                      A
 Frequencies --   3074.2802              3075.6128              3079.0413
 Red. masses --      1.0372                 1.0365                 1.0382
 Frc consts  --      5.7757                 5.7765                 5.7989
 IR Inten    --     66.4729                26.5908                37.5766

                     91                     92                     93
                      A                      A                      A
 Frequencies --   3141.5288              3141.7482              3142.4720
 Red. masses --      1.1032                 1.1027                 1.1034
 Frc consts  --      6.4146                 6.4130                 6.4199
 IR Inten    --     13.9065                41.9595                 0.1794

                     94                     95                     96
                      A                      A                      A
 Frequencies --   3143.0008              3144.0438              3146.0359
 Red. masses --      1.1030                 1.1031                 1.1031
 Frc consts  --      6.4194                 6.4248                 6.4324
 IR Inten    --     35.7576                90.1238                43.2090

                     97                     98                     99
                      A                      A                      A
 Frequencies --   3149.0044              3149.7351              3153.3684
 Red. masses --      1.1018                 1.1019                 1.1027
 Frc consts  --      6.4370                 6.4408                 6.4604
 IR Inten    --     97.7489                90.8436                 7.6487

                    100                    101                    102
                      A                      A                      A
 Frequencies --   3154.5647              3173.7642              3174.4197
 Red. masses --      1.1021                 1.1004                 1.0999
 Frc consts  --      6.4617                 6.5306                 6.5300
 IR Inten    --     82.3315                 0.6381                51.6453

                    103                    104                    105
                      A                      A                      A
 Frequencies --   3233.4390              3286.8415              3589.7352
 Red. masses --      1.0921                 1.0879                 1.0642
 Frc consts  --      6.7275                 6.9249                 8.0796
 IR Inten    --      2.1397                 0.0069               263.3493

 - Thermochemistry -
 -------------------
 Temperature   298.150 Kelvin.  Pressure   1.00000 Atm.
 Atom     1 has atomic number  6 and mass  12.00000

 Molecular mass:   221.15416 amu.
 Principal axes and moments of inertia in atomic units:
                           1         2         3
     Eigenvalues --  2421.224034713.613816341.27715
           X            0.99990   0.01385   0.00000
           Y           -0.01385   0.99990  -0.00001
           Z            0.00000   0.00001   1.00000
 This molecule is an asymmetric top.
 Rotational symmetry number  1.
 Warning -- assumption of classical behavior for rotation
           may cause significant error
 Rotational temperatures (Kelvin)      0.03577     0.01838     0.01366
 Rotational constants (GHZ):           0.74538     0.38288     0.28460
 Zero-point vibrational energy     853594.8 (Joules/Mol)
                                  204.01406 (Kcal/Mol)
 Warning -- explicit consideration of  29 degrees of freedom as
           vibrations may cause significant error
 Vibrational temperatures:     49.20    78.24   136.26   159.36   207.79
          (Kelvin)            257.80   316.16   334.33   346.94   364.25
                              380.66   398.01   416.75   464.27   471.05
                              479.80   500.03   523.55   527.42   536.95
                              551.63   593.68   607.58   626.28   636.35
                              718.43   780.77   832.47   877.73   944.24
                              952.99   955.04  1084.11  1096.40  1179.78
                             1219.59  1294.53  1337.65  1340.90  1374.86
                             1378.71  1385.92  1389.47  1399.37  1400.01
                             1438.74  1521.49  1522.53  1523.30  1526.24
                             1640.72  1725.03  1789.28  1796.56  1798.33
                             1804.01  1841.54  1857.68  1887.20  1941.10
                             2005.03  2026.51  2027.27  2030.55  2035.27
                             2040.37  2053.83  2065.51  2071.89  2146.98
                             2149.00  2153.57  2156.91  2160.23  2161.13
                             2170.55  2172.07  2177.68  2184.50  2190.10
                             2195.71  2248.80  2328.16  2372.78  4415.94
                             4417.43  4418.99  4423.20  4425.12  4430.05
                             4519.96  4520.27  4521.32  4522.08  4523.58
                             4526.44  4530.71  4531.77  4536.99  4538.71
                             4566.34  4567.28  4652.20  4729.03  5164.83

 Zero-point correction=                           0.325117 (Hartree/Particle)
 Thermal correction to Energy=                    0.342010
 Thermal correction to Enthalpy=                  0.342954
 Thermal correction to Gibbs Free Energy=         0.281620
 Sum of electronic and zero-point Energies=           -695.952541
 Sum of electronic and thermal Energies=              -695.935649
 Sum of electronic and thermal Enthalpies=            -695.934704
 Sum of electronic and thermal Free Energies=         -695.996038

                     E (Thermal)             CV                S
                      KCal/Mol        Cal/Mol-Kelvin    Cal/Mol-Kelvin
 Total                  214.614             67.156            129.088
 Electronic               0.000              0.000              1.377
 Translational            0.889              2.981             42.084
 Rotational               0.889              2.981             32.648
 Vibrational            212.837             61.195             52.978
 Vibration     1          0.594              1.983              5.570
 Vibration     2          0.596              1.976              4.652
 Vibration     3          0.603              1.953              3.560
 Vibration     4          0.607              1.941              3.256
 Vibration     5          0.616              1.909              2.744
 Vibration     6          0.629              1.868              2.337
 Vibration     7          0.647              1.811              1.961
 Vibration     8          0.653              1.791              1.861
 Vibration     9          0.658              1.777              1.795
 Vibration    10          0.664              1.757              1.708
 Vibration    11          0.671              1.738              1.631
 Vibration    12          0.678              1.717              1.554
 Vibration    13          0.686              1.693              1.476
 Vibration    14          0.708              1.630              1.296
 Vibration    15          0.711              1.621              1.273
 Vibration    16          0.715              1.609              1.243
 Vibration    17          0.725              1.580              1.177
 Vibration    18          0.737              1.547              1.105
 Vibration    19          0.739              1.541              1.094
 Vibration    20          0.745              1.527              1.067
 Vibration    21          0.753              1.506              1.026
 Vibration    22          0.776              1.443              0.917
 Vibration    23          0.785              1.422              0.884
 Vibration    24          0.796              1.393              0.842
 Vibration    25          0.802              1.378              0.819
 Vibration    26          0.855              1.251              0.660
 Vibration    27          0.898              1.156              0.560
 Vibration    28          0.935              1.078              0.488
 Vibration    29          0.969              1.011              0.433

 Optimization completed.
    -- Stationary point found.
 Normal termination of Gaussian 16 at Wed Apr  9 19:08:01 2025.
 Gaussian 16:  ES64L-G16RevA.03 25-Dec-2016

 ----------------------------------------------------------------------
 #p M062X/6-31+G(d) td(nstates=10) int(grid=ultrafine) scf(xqc,fermi,ma
 xcyc=200) scrf(check) guess(read) geom(allcheck)
 ----------------------------------------------------------------------

 Structure from the checkpoint file:  "SQ-c1.chk"

 Charge =  0 Multiplicity = 2

                         Standard orientation:
 ---------------------------------------------------------------------
 Center     Atomic      Atomic             Coordinates (Angstroms)
 Number     Number       Type             X           Y           Z
 ---------------------------------------------------------------------
      1          6           0        1.286128    1.464341    0.000011
      2          6           0        1.400193    0.097864    0.000002
      3          6           0       -0.002570    2.087742    0.000014
      4          6           0       -1.186574    1.226836    0.000006
      5          6           0       -1.089801   -0.174429   -0.000002
      6          6           0        0.202151   -0.691183   -0.000003
      7          1           0        0.314207   -1.767113   -0.000010
      8          1           0        2.152295    2.120765    0.000017
      9          8           0       -0.190938    3.336596    0.000021
     10          8           0       -2.357123    1.864709    0.000007
     11          1           0       -2.157276    2.827392    0.000014
     12          6           0       -2.337250   -1.063647   -0.000010
     13          6           0       -3.175653   -0.787469    1.260435
     14          1           0       -2.592146   -0.996086    2.164421
     15          1           0       -4.054371   -1.442757    1.263841
     16          1           0       -3.524558    0.247092    1.305249
     17          6           0       -3.175650   -0.787455   -1.260454
     18          1           0       -4.054367   -1.442742   -1.263869
     19          1           0       -2.592139   -0.996061   -2.164440
     20          1           0       -3.524554    0.247107   -1.305257
     21          6           0       -1.968717   -2.551090   -0.000017
     22          1           0       -2.890673   -3.142007   -0.000023
     23          1           0       -1.392330   -2.829644    0.889553
     24          1           0       -1.392326   -2.829633   -0.889589
     25          6           0        2.786964   -0.555715    0.000000
     26          6           0        2.719564   -2.086165    0.000002
     27          1           0        2.209480   -2.472992    0.889498
     28          1           0        3.739149   -2.485952    0.000004
     29          1           0        2.209484   -2.472995   -0.889495
     30          6           0        3.555032   -0.105455   -1.253912
     31          1           0        4.548333   -0.568768   -1.265829
     32          1           0        3.687276    0.981120   -1.275936
     33          1           0        3.025124   -0.405935   -2.165027
     34          6           0        3.555037   -0.105453    1.253907
     35          1           0        4.548339   -0.568766    1.265820
     36          1           0        3.025133   -0.405932    2.165025
     37          1           0        3.687281    0.981122    1.275929
 ---------------------------------------------------------------------

 SCF Done:  E(UM062X) =  -696.277658338     A.U. after    1 cycles

 Excitation energies and oscillator strengths:

 Excited State   1:  2.053-A      1.7272 eV  717.84 nm  f=0.0107  <S**2>=0.803
     60B -> 61B        0.98599
 This state for optimization and/or second-order correction.
 Total Energy, E(TD-HF/TD-DFT) =  -696.214185624
 Copying the excited state density for this state as the 1-particle RhoCI density.

 Excited State   2:  2.079-A      2.0173 eV  614.60 nm  f=0.0000  <S**2>=0.831
     54B -> 61B        0.24380
     57B -> 61B       -0.18839
     59B -> 61B        0.90792
     59B -> 71B       -0.11482
     59B -> 75B       -0.10261

 Excited State   3:  2.167-A      3.6794 eV  336.96 nm  f=0.0566  <S**2>=0.924
     60A -> 62A       -0.10747
     60A -> 64A       -0.17513
     61A -> 62A       -0.21029
     61A -> 64A        0.30573
     53B -> 61B       -0.29176
     58B -> 61B        0.82062

 Excited State   4:  2.079-A      4.3227 eV  286.82 nm  f=0.0001  <S**2>=0.830
     43B -> 61B        0.10380
     46B -> 61B        0.29643
     49B -> 61B       -0.16752
     52B -> 61B        0.24781
     54B -> 61B       -0.35939
     56B -> 61B       -0.44687
     57B -> 61B        0.59694
     59B -> 61B        0.27850

 Excited State   5:  2.756-A      4.4795 eV  276.78 nm  f=0.0294  <S**2>=1.649
     60A -> 62A        0.45647
     60A -> 64A       -0.13499
     61A -> 62A        0.55588
     61A -> 64A        0.40461
     44B -> 61B        0.11365
     48B -> 61B        0.19807
     51B -> 61B       -0.11232
     60B -> 65B        0.36039
     60B -> 66B        0.14160

 Excited State   6:  2.086-A      4.6951 eV  264.07 nm  f=0.0007  <S**2>=0.838
     41B -> 61B        0.16816
     43B -> 61B        0.10560
     46B -> 61B       -0.17048
     52B -> 61B       -0.31114
     54B -> 61B       -0.35799
     56B -> 61B        0.66492
     57B -> 61B        0.41290
     59B -> 61B        0.18388

 Excited State   7:  2.363-A      4.7403 eV  261.56 nm  f=0.0853  <S**2>=1.146
     60A -> 62A       -0.40743
     60A -> 64A       -0.19224
     61A -> 62A        0.74370
     61A -> 64A       -0.29565
     48B -> 61B       -0.10101
     58B -> 61B        0.20493
     60B -> 65B       -0.20395
     60B -> 66B       -0.11150

 Excited State   8:  2.450-A      5.1219 eV  242.07 nm  f=0.1624  <S**2>=1.250
     60A -> 62A       -0.24744
     60A -> 64A        0.10931
     61A -> 64A        0.76467
     61A -> 72A       -0.10283
     48B -> 61B       -0.18304
     51B -> 61B        0.12248
     58B -> 61B       -0.25500
     60B -> 65B       -0.34030
     60B -> 66B       -0.18092

 Excited State   9:  2.095-A      5.2845 eV  234.62 nm  f=0.0001  <S**2>=0.847
     43B -> 61B       -0.20354
     47B -> 61B       -0.12042
     52B -> 61B        0.12634
     54B -> 61B        0.68412
     56B -> 61B        0.15596
     57B -> 61B        0.58023
     59B -> 61B       -0.12390

 Excited State  10:  2.349-A      5.3225 eV  232.94 nm  f=0.0145  <S**2>=1.129
     60A -> 62A       -0.26272
     44B -> 61B        0.24939
     45B -> 61B        0.17799
     48B -> 61B        0.54843
     51B -> 61B       -0.38447
     53B -> 61B       -0.24610
     55B -> 61B       -0.37597
     58B -> 61B       -0.21349
     60B -> 65B       -0.19880

 The electronic state is 2-A.
 Alpha  occ. eigenvalues --  -19.70047 -19.64994 -10.64133 -10.63406 -10.57327
 Alpha  occ. eigenvalues --  -10.57221 -10.56976 -10.56518 -10.56287 -10.55558
 Alpha  occ. eigenvalues --  -10.52919 -10.52918 -10.52848 -10.52835 -10.52753
 Alpha  occ. eigenvalues --  -10.52753  -1.22458  -1.15845  -0.97711  -0.93283
 Alpha  occ. eigenvalues --   -0.90011  -0.84056  -0.82394  -0.77240  -0.77158
 Alpha  occ. eigenvalues --   -0.77147  -0.77144  -0.71192  -0.70911  -0.65088
 Alpha  occ. eigenvalues --   -0.63031  -0.60854  -0.58293  -0.54798  -0.54249
 Alpha  occ. eigenvalues --   -0.53291  -0.52587  -0.50583  -0.50283  -0.50174
 Alpha  occ. eigenvalues --   -0.49788  -0.48632  -0.47693  -0.46680  -0.45408
 Alpha  occ. eigenvalues --   -0.44764  -0.44330  -0.43679  -0.43156  -0.42199
 Alpha  occ. eigenvalues --   -0.41986  -0.40767  -0.40157  -0.39627  -0.38902
 Alpha  occ. eigenvalues --   -0.37575  -0.37529  -0.37347  -0.34759  -0.29905
 Alpha  occ. eigenvalues --   -0.26491
 Alpha virt. eigenvalues --    0.01789   0.01902   0.02788   0.02822   0.03287
 Alpha virt. eigenvalues --    0.04125   0.04359   0.04539   0.04760   0.04950
 Alpha virt. eigenvalues --    0.06455   0.06790   0.06813   0.06910   0.07219

  Beta  occ. eigenvalues --  -19.69786 -19.64374 -10.63914 -10.63395 -10.57333
  Beta  occ. eigenvalues --  -10.57102 -10.57016 -10.56514 -10.56289 -10.55506
  Beta  occ. eigenvalues --  -10.52919 -10.52918 -10.52848 -10.52834 -10.52758
  Beta  occ. eigenvalues --  -10.52758  -1.21604  -1.14278  -0.97274  -0.93261
  Beta  occ. eigenvalues --   -0.89737  -0.83825  -0.81378  -0.77168  -0.77153
  Beta  occ. eigenvalues --   -0.77145  -0.77108  -0.70846  -0.70491  -0.64854
  Beta  occ. eigenvalues --   -0.62507  -0.60691  -0.57998  -0.54589  -0.53062
  Beta  occ. eigenvalues --   -0.51890  -0.51754  -0.50239  -0.50172  -0.50139
  Beta  occ. eigenvalues --   -0.49498  -0.48559  -0.46396  -0.45731  -0.44678
  Beta  occ. eigenvalues --   -0.44581  -0.43640  -0.43250  -0.43045  -0.42180
  Beta  occ. eigenvalues --   -0.41760  -0.40131  -0.39508  -0.39372  -0.38853
  Beta  occ. eigenvalues --   -0.37452  -0.37217  -0.35977  -0.34060  -0.28770
  Beta virt. eigenvalues --   -0.10561   0.01795   0.02802   0.03306   0.03460
  Beta virt. eigenvalues --    0.03971   0.04371   0.04464   0.04681   0.04888
  Beta virt. eigenvalues --    0.05134   0.06679   0.06796   0.06844   0.07077

 Mulliken charges and spin densities:
               1          2
     1  C    0.177626   0.143469
     2  C   -0.815721  -0.069068
     3  C    0.740459   0.034495
     4  C    0.170275   0.360146
     5  C   -0.415174  -0.155850
     6  C   -0.572199   0.307103
     7  H    0.243257  -0.015098
     8  H    0.264058  -0.006091
     9  O   -0.687603   0.294042
    10  O   -0.670547   0.083381
    11  H    0.584931  -0.004964
    12  C   -0.118196   0.012152
    13  C   -0.575177   0.002176
    14  H    0.243670   0.000205
    15  H    0.236720  -0.000554
    16  H    0.250296   0.000118
    17  C   -0.575178   0.002176
    18  H    0.236720  -0.000554
    19  H    0.243670   0.000205
    20  H    0.250296   0.000118
    21  C   -0.498591   0.002044
    22  H    0.240927  -0.000172
    23  H    0.244348   0.000181
    24  H    0.244348   0.000181
    25  C    0.028155   0.037118
    26  C   -0.505278  -0.003910
    27  H    0.242966   0.000224
    28  H    0.239526  -0.000372
    29  H    0.242966   0.000224
    30  C   -0.569515  -0.010952
    31  H    0.236868  -0.000552
    32  H    0.242399  -0.000061
    33  H    0.244472   0.000002
    34  C   -0.569515  -0.010952
    35  H    0.236868  -0.000552
    36  H    0.244472   0.000002
    37  H    0.242398  -0.000061
 Sum of Mulliken charges =   0.00000   1.00000

 Dipole moment (field-independent basis, Debye):
    X=              1.0910    Y=             -5.3355    Z=              0.0000  Tot=              5.4459
 Quadrupole moment (field-independent basis, Debye-Ang):
   XX=            -92.1834   YY=           -111.8154   ZZ=           -101.8947
   XY=             -0.9328   XZ=              0.0000   YZ=             -0.0001

 Normal termination of Gaussian 16 at Wed Apr  9 19:29:50 2025.
