 Gaussian 16, Revision A.03,

 ----------------------------------------------------------------------
 #p M062X/6-31+G(d) opt(tight) int(grid=ultrafine) scf(xqc,fermi,maxcyc
 =200) scrf(smd,solvent=water)
 ----------------------------------------------------------------------

 (Enter /export/g16/l101.exe)

 Symbolic Z-matrix:
 Charge = -1 Multiplicity = 2

 SCF Done:  E(UM062X) =  -381.472380982     A.U. after   15 cycles
 SCF Done:  E(UM062X) =  -381.472728685     A.U. after   12 cycles
 SCF Done:  E(UM062X) =  -381.472750058     A.U. after   11 cycles
 SCF Done:  E(UM062X) =  -381.472751394     A.U. after   10 cycles
 SCF Done:  E(UM062X) =  -381.472751407     A.U. after    7 cycles
 Optimization completed.
    -- Stationary point found.
 Normal termination of Gaussian 16 at Wed Apr  9 18:03:52 2025.

 ----------------------------------------------------------------------
 #p M062X/6-31+G(d) stable(opt) pop(nbo) int(grid=ultrafine) scf(xqc,fe
 rmi,maxcyc=200) scrf(check) guess(read) geom(allcheck)
 ----------------------------------------------------------------------

 Structure from the checkpoint file:  "Q-AR.chk"

 Charge = -1 Multiplicity = 2

 SCF Done:  E(UM062X) =  -381.472751407     A.U. after    1 cycles

 Summary of Natural Population Analysis:

                                       Natural Population
                Natural  -----------------------------------------------
    Atom  No    Charge         Core      Valence    Rydberg      Total
 -----------------------------------------------------------------------
      C    1   -0.07970      0.99958     2.07174    0.00839     3.07970
      C    2   -0.15330      0.99954     2.14480    0.00896     3.15330
      C    3   -0.07970      0.99958     2.07174    0.00839     3.07970
      C    4   -0.15330      0.99954     2.14480    0.00896     3.15330
      C    5    0.23348      0.99955     1.74861    0.01836     2.76652
      C    6    0.23348      0.99955     1.74861    0.01836     2.76652
      H    7    0.12916      0.00000     0.37047    0.00038     0.37084
      O    8   -0.25714      0.99991     3.24941    0.00782     4.25714
      H    9    0.12916      0.00000     0.37047    0.00038     0.37084
      H   10    0.12751      0.00000     0.37158    0.00090     0.37249
      H   11    0.12751      0.00000     0.37158    0.00090     0.37249
      O   12   -0.25714      0.99991     3.24941    0.00782     4.25714
 =======================================================================
   * Total *    0.00000      7.99716    19.91323    0.08961    28.00000

 Normal termination of Gaussian 16 at Wed Apr  9 18:05:00 2025.

 ----------------------------------------------------------------------
 #p M062X/6-31+G(d) freq int(grid=ultrafine) scf(xqc,fermi,maxcyc=200)
 scrf(check) guess(read) geom(allcheck)
 ----------------------------------------------------------------------

 Structure from the checkpoint file:  "Q-AR.chk"

 Charge = -1 Multiplicity = 2

 SCF Done:  E(UM062X) =  -381.472751407     A.U. after    1 cycles

  Exact polarizability:  63.378   0.000 152.280   0.000   0.000 171.111
 Approx polarizability:  56.107   0.000 111.787   0.000   0.000 134.201

                      1                      2                      3
                     A2                     B1                     A1
 Frequencies --    115.6159               275.3514               391.9089
 Red. masses --      6.1116                 4.9530                14.7395
 Frc consts  --      0.0481                 0.2213                 1.3338
 IR Inten    --      0.0000                 5.2977                 5.8885

                      4                      5                      6
                     B2                     B1                     A2
 Frequencies --    448.1693               478.7770               514.3434
 Red. masses --      8.5171                 3.0654                 3.1487
 Frc consts  --      1.0079                 0.4140                 0.4908
 IR Inten    --     17.8554                 0.5421                 0.0000

                      7                      8                      9
                     B2                     A1                     A2
 Frequencies --    573.4229               576.7729               748.7927
 Red. masses --      5.9808                 7.5975                 3.7505
 Frc consts  --      1.1587                 1.4891                 1.2390
 IR Inten    --     38.5360                 2.3371                 0.0000

                     10                     11                     12
                     B1                     A1                     A2
 Frequencies --    752.3523               761.8298               855.9263
 Red. masses --      1.3335                 5.6303                 1.6629
 Frc consts  --      0.4447                 1.9253                 0.7178
 IR Inten    --    192.3428                 9.0053                 0.0000

                     13                     14                     15
                     B2                     B1                     A2
 Frequencies --    884.1479               967.6348               995.4437
 Red. masses --      6.4564                 1.3140                 1.2866
 Frc consts  --      2.9737                 0.7249                 0.7511
 IR Inten    --     30.0378                 4.1486                 0.0000

                     16                     17                     18
                     A1                     B2                     A1
 Frequencies --   1033.7963              1145.5513              1161.3895
 Red. masses --      2.1841                 1.5434                 1.0786
 Frc consts  --      1.3753                 1.1933                 0.8571
 IR Inten    --      5.6685                51.7518                 0.0058

                     19                     20                     21
                     B2                     A1                     B2
 Frequencies --   1222.2277              1306.4433              1396.2057
 Red. masses --      1.8457                 3.9220                 1.8831
 Frc consts  --      1.6245                 3.9440                 2.1629
 IR Inten    --      2.1545                 2.1597                19.3639

                     22                     23                     24
                     A1                     B2                     A1
 Frequencies --   1438.3182              1526.7649              1553.9995
 Red. masses --      3.1718                 7.0946                 4.9528
 Frc consts  --      3.8660                 9.7436                 7.0469
 IR Inten    --    284.7858               462.4464               875.4584

                     25                     26                     27
                     A1                     B2                     B2
 Frequencies --   1610.6240              1656.6789              3212.3351
 Red. masses --      8.3572                 5.2322                 1.0866
 Frc consts  --     12.7732                 8.4608                 6.6064
 IR Inten    --    244.5474               118.2456                 8.6870

                     28                     29                     30
                     A1                     B2                     A1
 Frequencies --   3216.0151              3227.9688              3238.8340
 Red. masses --      1.0892                 1.0946                 1.0979
 Frc consts  --      6.6372                 6.7200                 6.7854
 IR Inten    --      8.4321                30.6294                19.7561

 - Thermochemistry -
 -------------------
 Temperature   298.150 Kelvin.  Pressure   1.00000 Atm.
 Atom     1 has atomic number  6 and mass  12.00000

 Molecular mass:   108.02113 amu.
 Principal axes and moments of inertia in atomic units:
                           1         2         3
     Eigenvalues --   534.21343 753.872841288.08627
           X            0.00000   0.00000   1.00000
           Y            0.00000   1.00000   0.00000
           Z            1.00000   0.00000   0.00000
 This molecule is an asymmetric top.
 Rotational symmetry number  2.
 Warning -- assumption of classical behavior for rotation
           may cause significant error
 Rotational temperatures (Kelvin)      0.16213     0.11489     0.06724
 Rotational constants (GHZ):           3.37831     2.39396     1.40110
 Zero-point vibrational energy     223029.6 (Joules/Mol)
                                   53.30536 (Kcal/Mol)
 Warning -- explicit consideration of   8 degrees of freedom as
           vibrations may cause significant error
 Vibrational temperatures:    166.35   396.17   563.87   644.82   688.85
          (Kelvin)            740.03   825.03   829.85  1077.35  1082.47
                             1096.10  1231.49  1272.09  1392.21  1432.22
                             1487.40  1648.19  1670.98  1758.51  1879.68
                             2008.83  2069.42  2196.67  2235.86  2317.33
                             2383.59  4621.83  4627.13  4644.33  4659.96

 Zero-point correction=                           0.084947 (Hartree/Particle)
 Thermal correction to Energy=                    0.090927
 Thermal correction to Enthalpy=                  0.091871
 Thermal correction to Gibbs Free Energy=         0.054755
 Sum of electronic and zero-point Energies=           -381.387804
 Sum of electronic and thermal Energies=              -381.381824
 Sum of electronic and thermal Enthalpies=            -381.380880
 Sum of electronic and thermal Free Energies=         -381.417996

                     E (Thermal)             CV                S
                      KCal/Mol        Cal/Mol-Kelvin    Cal/Mol-Kelvin
 Total                   57.058             22.799             78.118
 Electronic               0.000              0.000              1.377
 Translational            0.889              2.981             39.948
 Rotational               0.889              2.981             26.364
 Vibrational             55.280             16.838             10.428
 Vibration     1          0.608              1.936              3.172
 Vibration     2          0.677              1.719              1.562
 Vibration     3          0.759              1.487              0.993
 Vibration     4          0.807              1.365              0.801
 Vibration     5          0.835              1.297              0.713
 Vibration     6          0.869              1.218              0.623
 Vibration     7          0.930              1.089              0.498
 Vibration     8          0.933              1.082              0.491

 Optimization completed.
    -- Stationary point found.
 Normal termination of Gaussian 16 at Wed Apr  9 18:06:21 2025.
 Gaussian 16:  ES64L-G16RevA.03 25-Dec-2016

 ----------------------------------------------------------------------
 #p M062X/6-31+G(d) td(nstates=10) int(grid=ultrafine) scf(xqc,fermi,ma
 xcyc=200) scrf(check) guess(read) geom(allcheck)
 ----------------------------------------------------------------------

 Structure from the checkpoint file:  "Q-AR.chk"

 Charge = -1 Multiplicity = 2

                         Standard orientation:
 ---------------------------------------------------------------------
 Center     Atomic      Atomic             Coordinates (Angstroms)
 Number     Number       Type             X           Y           Z
 ---------------------------------------------------------------------
      1          6           0        0.000000    0.713674    1.802028
      2          6           0        0.000000    1.413964    0.622148
      3          6           0        0.000000   -0.713674    1.802028
      4          6           0        0.000000   -1.413964    0.622148
      5          6           0        0.000000   -0.743498   -0.648772
      6          6           0        0.000000    0.743498   -0.648772
      7          1           0        0.000000   -1.244312    2.750147
      8          8           0        0.000000    1.373935   -1.751946
      9          1           0        0.000000    1.244312    2.750147
     10          1           0        0.000000    2.501516    0.612998
     11          1           0        0.000000   -2.501516    0.612998
     12          8           0        0.000000   -1.373935   -1.751946
 ---------------------------------------------------------------------

 SCF Done:  E(UM062X) =  -381.472751407     A.U. after    1 cycles

 Excitation energies and oscillator strengths:

 Excited State   1:  2.065-B1     2.0373 eV  608.57 nm  f=0.0000  <S**2>=0.816
     26B -> 36B       -0.14588
     27B -> 29B        0.95755
     27B -> 33B        0.20327
 This state for optimization and/or second-order correction.
 Total Energy, E(TD-HF/TD-DFT) =  -381.397881820
 Copying the excited state density for this state as the 1-particle RhoCI density.

 Excited State   2:  2.085-B2     2.2060 eV  562.03 nm  f=0.0268  <S**2>=0.837
     29A -> 34A        0.10670
     28B -> 29B        0.98149

 Excited State   3:  2.111-A2     2.8036 eV  442.24 nm  f=0.0000  <S**2>=0.864
     26B -> 29B        0.93285
     26B -> 33B        0.21802
     27B -> 36B       -0.20608

 Excited State   4:  2.084-A1     3.9632 eV  312.84 nm  f=0.0237  <S**2>=0.835
     29A -> 30A        0.90685
     29A -> 45A       -0.10661
     25B -> 29B        0.36016
     28B -> 36B        0.15455

 Excited State   5:  2.323-B2     4.2570 eV  291.25 nm  f=0.0535  <S**2>=1.100
     28A -> 30A       -0.33782
     29A -> 34A        0.82992
     24B -> 29B       -0.33021
     28B -> 33B        0.19874

 Excited State   6:  2.462-A1     4.6998 eV  263.81 nm  f=0.1900  <S**2>=1.265
     28A -> 34A       -0.45645
     29A -> 30A       -0.36197
     25B -> 29B        0.76162
     28B -> 36B        0.19994

 Excited State   7:  2.028-B1     4.7928 eV  258.69 nm  f=0.0002  <S**2>=0.778
     29A -> 31A        0.95840
     29A -> 32A       -0.17405
     29A -> 40A       -0.15928

 Excited State   8:  2.598-B2     4.9175 eV  252.13 nm  f=0.1228  <S**2>=1.437
     28A -> 30A        0.36567
     29A -> 34A        0.50451
     24B -> 29B        0.60580
     28B -> 33B       -0.41908

 Excited State   9:  2.039-B1     5.3605 eV  231.29 nm  f=0.0004  <S**2>=0.790
     29A -> 31A        0.17995
     29A -> 32A        0.96327
     29A -> 36A       -0.10881

 Excited State  10:  2.044-A2     5.4578 eV  227.17 nm  f=0.0000  <S**2>=0.794
     28A -> 31A        0.13584
     29A -> 33A        0.96396
     29A -> 35A       -0.18611

 The electronic state is 2-B1.
 Alpha  occ. eigenvalues --  -19.61694 -19.61694 -10.60687 -10.60640 -10.55302
 Alpha  occ. eigenvalues --  -10.55238 -10.54197 -10.54196  -1.14364  -1.11257
 Alpha  occ. eigenvalues --   -0.93495  -0.82925  -0.79211  -0.67780  -0.65551
 Alpha  occ. eigenvalues --   -0.56786  -0.54535  -0.52680  -0.50020  -0.48996
 Alpha  occ. eigenvalues --   -0.48405  -0.43737  -0.43266  -0.42106  -0.39407
 Alpha  occ. eigenvalues --   -0.34686  -0.30943  -0.28974  -0.22592
 Alpha virt. eigenvalues --    0.03383   0.03417   0.04192   0.04608   0.04621
 Alpha virt. eigenvalues --    0.06203   0.06583   0.07952   0.09102   0.10253
 Alpha virt. eigenvalues --    0.10408   0.10480   0.11565   0.13783   0.15116

  Beta  occ. eigenvalues --  -19.61178 -19.61177 -10.60624 -10.60581 -10.55235
  Beta  occ. eigenvalues --  -10.55175 -10.54189 -10.54187  -1.13059  -1.09808
  Beta  occ. eigenvalues --   -0.92977  -0.82686  -0.78133  -0.67371  -0.65046
  Beta  occ. eigenvalues --   -0.56234  -0.54115  -0.52027  -0.48182  -0.48106
  Beta  occ. eigenvalues --   -0.47067  -0.43350  -0.41790  -0.39361  -0.36738
  Beta  occ. eigenvalues --   -0.33821  -0.30249  -0.27240
  Beta virt. eigenvalues --   -0.07272   0.03334   0.04152   0.04742   0.05438
  Beta virt. eigenvalues --    0.06290   0.06620   0.07082   0.07326   0.09141
  Beta virt. eigenvalues --    0.09868   0.10222   0.10314   0.11647   0.14113

 Mulliken charges and spin densities:
               1          2
     1  C   -0.301839   0.115263
     2  C   -0.267587   0.018600
     3  C   -0.301839   0.115263
     4  C   -0.267587   0.018600
     5  C    0.359068   0.142198
     6  C    0.359068   0.142198
     7  H    0.241800  -0.006772
     8  O   -0.769343   0.233708
     9  H    0.241800  -0.006772
    10  H    0.237901  -0.002997
    11  H    0.237901  -0.002997
    12  O   -0.769343   0.233708
 Sum of Mulliken charges =  -1.00000   1.00000

 Dipole moment (field-independent basis, Debye):
    X=              0.0000    Y=              0.0000    Z=             10.7214  Tot=             10.7214
 Quadrupole moment (field-independent basis, Debye-Ang):
   XX=            -50.6281   YY=            -56.3638   ZZ=            -65.1470
   XY=              0.0000   XZ=              0.0000   YZ=              0.0000

 Normal termination of Gaussian 16 at Wed Apr  9 18:07:52 2025.
