 Gaussian 16, Revision A.03,

 ----------------------------------------------------------------------
 #p M062X/6-31+G(d) opt(tight) int(grid=ultrafine) scf(xqc,fermi,maxcyc
 =200) scrf(smd,solvent=water)
 ----------------------------------------------------------------------

 (Enter /export/g16/l101.exe)

 Symbolic Z-matrix:
 Charge =  0 Multiplicity = 2

 SCF Done:  E(UM062X) =  -381.922476102     A.U. after   19 cycles
 SCF Done:  E(UM062X) =  -381.922623684     A.U. after   15 cycles
 SCF Done:  E(UM062X) =  -381.922633108     A.U. after   14 cycles
 SCF Done:  E(UM062X) =  -381.922634926     A.U. after   13 cycles
 SCF Done:  E(UM062X) =  -381.922635040     A.U. after   10 cycles
 SCF Done:  E(UM062X) =  -381.922635055     A.U. after    9 cycles
 SCF Done:  E(UM062X) =  -381.922635059     A.U. after    6 cycles
 Optimization completed.
    -- Stationary point found.
 Normal termination of Gaussian 16 at Wed Apr  9 18:06:06 2025.

 ----------------------------------------------------------------------
 #p M062X/6-31+G(d) stable(opt) pop(nbo) int(grid=ultrafine) scf(xqc,fe
 rmi,maxcyc=200) scrf(check) guess(read) geom(allcheck)
 ----------------------------------------------------------------------

 Structure from the checkpoint file:  "SQ.chk"

 Charge =  0 Multiplicity = 2

 SCF Done:  E(UM062X) =  -381.922635059     A.U. after    1 cycles

 Summary of Natural Population Analysis:

                                       Natural Population
                Natural  -----------------------------------------------
    Atom  No    Charge         Core      Valence    Rydberg      Total
 -----------------------------------------------------------------------
      C    1   -0.13879      0.99958     2.13116    0.00805     3.13879
      C    2   -0.07706      0.99954     2.06938    0.00815     3.07706
      C    3    0.05801      0.99960     1.93483    0.00756     2.94199
      C    4   -0.22254      0.99953     2.21436    0.00864     3.22254
      C    5    0.31344      0.99945     1.67483    0.01229     2.68656
      C    6    0.20419      0.99956     1.77910    0.01715     2.79581
      H    7    0.28001      0.00000     0.21878    0.00121     0.21999
      O    8   -0.16203      0.99991     3.15538    0.00674     4.16203
      H    9    0.13869      0.00000     0.36099    0.00033     0.36131
      H   10    0.13547      0.00000     0.36388    0.00065     0.36453
      H   11    0.14331      0.00000     0.35607    0.00062     0.35669
      O   12   -0.30610      0.99988     3.29709    0.00913     4.30610
      H   13    0.13341      0.00000     0.36632    0.00027     0.36659
 =======================================================================
   * Total *    0.50000      7.99705    19.92217    0.08078    28.00000

 Normal termination of Gaussian 16 at Wed Apr  9 18:09:02 2025.

 ----------------------------------------------------------------------
 #p M062X/6-31+G(d) freq int(grid=ultrafine) scf(xqc,fermi,maxcyc=200)
 scrf(check) guess(read) geom(allcheck)
 ----------------------------------------------------------------------

 Structure from the checkpoint file:  "SQ.chk"

 Charge =  0 Multiplicity = 2

 SCF Done:  E(UM062X) =  -381.922635059     A.U. after    1 cycles

  Exact polarizability: 156.841 -11.929 131.728  -0.001   0.000  56.085
 Approx polarizability: 126.104 -10.039 104.726   0.000   0.000  51.017

                      1                      2                      3
                      A                      A                      A
 Frequencies --    156.7818               269.1967               314.7684
 Red. masses --      5.5831                 4.5139                 5.8434
 Frc consts  --      0.0809                 0.1927                 0.3411
 IR Inten    --      6.5391                 0.0201                41.1323

                      4                      5                      6
                      A                      A                      A
 Frequencies --    445.3722               460.6116               495.2116
 Red. masses --      7.7033                 3.2612                 2.4382
 Frc consts  --      0.9003                 0.4077                 0.3523
 IR Inten    --     13.4755                 0.0001                46.4819

                      7                      8                      9
                      A                      A                      A
 Frequencies --    544.5551               564.7798               576.0464
 Red. masses --      1.2134                 5.7164                 7.2268
 Frc consts  --      0.2120                 1.0743                 1.4129
 IR Inten    --    210.8152                14.7598                 4.0231

                     10                     11                     12
                      A                      A                      A
 Frequencies --    723.7606               772.9383               780.4888
 Red. masses --      2.7018                 5.6274                 1.6527
 Frc consts  --      0.8338                 1.9808                 0.5932
 IR Inten    --     24.7271                35.6249               115.5845

                     13                     14                     15
                      A                      A                      A
 Frequencies --    866.5849               876.4579               982.7014
 Red. masses --      1.4418                 6.0490                 1.3331
 Frc consts  --      0.6379                 2.7378                 0.7585
 IR Inten    --      0.3724                15.1555                 4.2752

                     16                     17                     18
                      A                      A                      A
 Frequencies --   1016.2754              1026.5101              1137.1743
 Red. masses --      1.3150                 2.1641                 1.5654
 Frc consts  --      0.8002                 1.3435                 1.1927
 IR Inten    --      0.7434                 8.9950                25.2313

                     19                     20                     21
                      A                      A                      A
 Frequencies --   1164.1512              1181.7556              1256.8241
 Red. masses --      1.1079                 1.3516                 2.4228
 Frc consts  --      0.8847                 1.1121                 2.2548
 IR Inten    --     25.6899               222.3301               301.4678

                     22                     23                     24
                      A                      A                      A
 Frequencies --   1338.9171              1394.0471              1439.6459
 Red. masses --      2.5673                 2.8952                 2.0087
 Frc consts  --      2.7117                 3.3149                 2.4528
 IR Inten    --    112.8052                50.4946                12.4522

                     25                     26                     27
                      A                      A                      A
 Frequencies --   1479.6181              1564.8506              1598.3976
 Red. masses --      3.7844                 6.9935                 4.2470
 Frc consts  --      4.8815                10.0899                 6.3930
 IR Inten    --    469.2084               381.4840               165.4286

                     28                     29                     30
                      A                      A                      A
 Frequencies --   1650.4626              3238.0211              3245.8917
 Red. masses --      5.7407                 1.0881                 1.0901
 Frc consts  --      9.2136                 6.7217                 6.7670
 IR Inten    --     42.7019                 1.1843                 4.7956

                     31                     32                     33
                      A                      A                      A
 Frequencies --   3251.1105              3259.3359              3610.2242
 Red. masses --      1.0966                 1.0978                 1.0648
 Frc consts  --      6.8293                 6.8714                 8.1771
 IR Inten    --      3.7524                 4.3543               287.3432

 - Thermochemistry -
 -------------------
 Temperature   298.150 Kelvin.  Pressure   1.00000 Atm.
 Atom     1 has atomic number  6 and mass  12.00000

 Molecular mass:   109.02895 amu.
 Principal axes and moments of inertia in atomic units:
                           1         2         3
     Eigenvalues --   525.21000 773.661441298.87144
           X            0.99983   0.01855   0.00000
           Y           -0.01855   0.99983  -0.00001
           Z            0.00000   0.00000   1.00000
 This molecule is an asymmetric top.
 Rotational symmetry number  1.
 Warning -- assumption of classical behavior for rotation
           may cause significant error
 Rotational temperatures (Kelvin)      0.16491     0.11195     0.06668
 Rotational constants (GHZ):           3.43623     2.33273     1.38947
 Zero-point vibrational energy     255303.8 (Joules/Mol)
                                   61.01908 (Kcal/Mol)
 Warning -- explicit consideration of   9 degrees of freedom as
           vibrations may cause significant error
 Vibrational temperatures:    225.57   387.31   452.88   640.79   662.72
          (Kelvin)            712.50   783.49   812.59   828.80  1041.33
                             1112.09  1122.95  1246.82  1261.03  1413.89
                             1462.19  1476.92  1636.14  1674.95  1700.28
                             1808.29  1926.40  2005.72  2071.33  2128.84
                             2251.47  2299.74  2374.65  4658.79  4670.11
                             4677.62  4689.46  5194.31

 Zero-point correction=                           0.097240 (Hartree/Particle)
 Thermal correction to Energy=                    0.103476
 Thermal correction to Enthalpy=                  0.104421
 Thermal correction to Gibbs Free Energy=         0.066393
 Sum of electronic and zero-point Energies=           -381.825395
 Sum of electronic and thermal Energies=              -381.819159
 Sum of electronic and thermal Enthalpies=            -381.818214
 Sum of electronic and thermal Free Energies=         -381.856242

                     E (Thermal)             CV                S
                      KCal/Mol        Cal/Mol-Kelvin    Cal/Mol-Kelvin
 Total                   64.932             24.327             80.035
 Electronic               0.000              0.000              1.377
 Translational            0.889              2.981             39.976
 Rotational               0.889              2.981             27.759
 Vibrational             63.155             18.366             10.923
 Vibration     1          0.620              1.895              2.588
 Vibration     2          0.674              1.730              1.601
 Vibration     3          0.702              1.645              1.337
 Vibration     4          0.805              1.371              0.810
 Vibration     5          0.818              1.337              0.764
 Vibration     6          0.851              1.261              0.670
 Vibration     7          0.900              1.152              0.556
 Vibration     8          0.921              1.107              0.514
 Vibration     9          0.932              1.083              0.493

 Optimization completed.
    -- Stationary point found.
 Normal termination of Gaussian 16 at Wed Apr  9 18:11:47 2025.
 Gaussian 16:  ES64L-G16RevA.03 25-Dec-2016

 ----------------------------------------------------------------------
 #p M062X/6-31+G(d) td(nstates=10) int(grid=ultrafine) scf(xqc,fermi,ma
 xcyc=200) scrf(check) guess(read) geom(allcheck)
 ----------------------------------------------------------------------

 Structure from the checkpoint file:  "SQ.chk"

 Charge =  0 Multiplicity = 2

                         Standard orientation:
 ---------------------------------------------------------------------
 Center     Atomic      Atomic             Coordinates (Angstroms)
 Number     Number       Type             X           Y           Z
 ---------------------------------------------------------------------
      1          6           0        1.893759    0.593826   -0.000001
      2          6           0        0.781699    1.389588    0.000001
      3          6           0        1.774729   -0.827045   -0.000011
      4          6           0        0.537973   -1.452555   -0.000006
      5          6           0       -0.608251   -0.662787   -0.000005
      6          6           0       -0.531547    0.797584   -0.000026
      7          1           0       -2.484379   -0.487019   -0.000005
      8          8           0       -1.608577    1.451685    0.000032
      9          1           0        2.884179    1.037901    0.000008
     10          1           0        0.846341    2.473526    0.000017
     11          1           0        0.445283   -2.533863   -0.000001
     12          8           0       -1.823662   -1.213077    0.000003
     13          1           0        2.676310   -1.431072   -0.000008
 ---------------------------------------------------------------------

 SCF Done:  E(UM062X) =  -381.922635059     A.U. after    1 cycles

 Excitation energies and oscillator strengths:

 Excited State   1:  2.082-A      1.8992 eV  652.81 nm  f=0.0000  <S**2>=0.834
     27B -> 29B        0.95045
     27B -> 31B        0.11124
     27B -> 34B       -0.21962
 This state for optimization and/or second-order correction.
 Total Energy, E(TD-HF/TD-DFT) =  -381.852839649
 Copying the excited state density for this state as the 1-particle RhoCI density.

 Excited State   2:  2.059-A      2.0215 eV  613.32 nm  f=0.0131  <S**2>=0.810
     28B -> 29B        0.98597

 Excited State   3:  2.133-A      3.8786 eV  319.67 nm  f=0.0344  <S**2>=0.887
     28A -> 31A        0.16726
     29A -> 30A        0.33648
     29A -> 31A       -0.37903
     26B -> 29B        0.81539
     28B -> 34B        0.12355

 Excited State   4:  2.563-A      4.5720 eV  271.18 nm  f=0.0378  <S**2>=1.393
     28A -> 30A        0.40961
     29A -> 30A        0.59237
     29A -> 31A        0.52270
     24B -> 29B       -0.23593
     28B -> 31B        0.31528

 Excited State   5:  2.497-A      4.7935 eV  258.65 nm  f=0.1137  <S**2>=1.309
     28A -> 30A       -0.39365
     28A -> 31A       -0.30121
     29A -> 30A        0.68139
     29A -> 31A       -0.22417
     24B -> 29B        0.19084
     26B -> 29B       -0.30415
     28B -> 31B       -0.27747

 Excited State   6:  2.090-A      4.8353 eV  256.41 nm  f=0.0000  <S**2>=0.842
     22B -> 29B        0.10457
     25B -> 29B        0.95175
     27B -> 29B        0.13221
     27B -> 34B        0.13299

 Excited State   7:  2.409-A      5.1948 eV  238.67 nm  f=0.1862  <S**2>=1.201
     28A -> 30A       -0.25094
     29A -> 31A        0.68391
     24B -> 29B        0.44534
     26B -> 29B        0.29366
     28B -> 31B       -0.35398

 Excited State   8:  2.160-A      5.5358 eV  223.97 nm  f=0.0004  <S**2>=0.916
     21B -> 29B       -0.14654
     23B -> 29B        0.91282
     27B -> 29B       -0.14812
     27B -> 31B        0.17705
     27B -> 34B       -0.14481

 Excited State   9:  2.680-A      5.5574 eV  223.10 nm  f=0.0001  <S**2>=1.545
     26A -> 31A        0.10205
     28A -> 30A        0.36934
     28A -> 31A       -0.22782
     29A -> 31A       -0.13446
     24B -> 29B        0.73446
     24B -> 31B        0.10382
     26B -> 29B       -0.10511
     26B -> 31B        0.10709
     26B -> 34B       -0.13334
     28B -> 31B        0.34697
     28B -> 34B       -0.12264

 Excited State  10:  2.055-A      5.6296 eV  220.24 nm  f=0.0001  <S**2>=0.805
     29A -> 32A        0.96633
     29A -> 39A       -0.12301

 The electronic state is 2-A.
 Alpha  occ. eigenvalues --  -19.70454 -19.65553 -10.64668 -10.63930 -10.58291
 Alpha  occ. eigenvalues --  -10.56977 -10.56775 -10.56549  -1.22559  -1.16477
 Alpha  occ. eigenvalues --   -0.96800  -0.86357  -0.83239  -0.71450  -0.70909
 Alpha  occ. eigenvalues --   -0.63926  -0.59166  -0.56474  -0.54242  -0.53127
 Alpha  occ. eigenvalues --   -0.51163  -0.49061  -0.47787  -0.45582  -0.43129
 Alpha  occ. eigenvalues --   -0.42054  -0.35867  -0.31786  -0.27068
 Alpha virt. eigenvalues --    0.01290   0.02165   0.02370   0.03608   0.04204
 Alpha virt. eigenvalues --    0.05827   0.06062   0.07292   0.08811   0.09597
 Alpha virt. eigenvalues --    0.09722   0.09936   0.10941   0.13358   0.14521

  Beta  occ. eigenvalues --  -19.70211 -19.64891 -10.64466 -10.63928 -10.58104
  Beta  occ. eigenvalues --  -10.57002 -10.56702 -10.56648  -1.21755  -1.14819
  Beta  occ. eigenvalues --   -0.96163  -0.86107  -0.82046  -0.70933  -0.70511
  Beta  occ. eigenvalues --   -0.63375  -0.58788  -0.55878  -0.52554  -0.51420
  Beta  occ. eigenvalues --   -0.50742  -0.48640  -0.45294  -0.44216  -0.42735
  Beta  occ. eigenvalues --   -0.38719  -0.34867  -0.30656
  Beta virt. eigenvalues --   -0.10911   0.02354   0.03136   0.03566   0.04290
  Beta virt. eigenvalues --    0.05019   0.05898   0.06113   0.06876   0.08794
  Beta virt. eigenvalues --    0.09243   0.09713   0.09835   0.10987   0.13572

 Mulliken charges and spin densities:
               1          2
     1  C   -0.333365  -0.056416
     2  C   -0.131273   0.146964
     3  C   -0.214701   0.351558
     4  C   -0.304646  -0.162492
     5  C    0.345979   0.325785
     6  C    0.352115   0.027691
     7  H    0.557966  -0.004327
     8  O   -0.673772   0.315956
     9  H    0.263569  -0.000330
    10  H    0.267735  -0.007645
    11  H    0.274778   0.003917
    12  O   -0.673475   0.075250
    13  H    0.269090  -0.015910
 Sum of Mulliken charges =   0.00000   1.00000

 Dipole moment (field-independent basis, Debye):
    X=              4.1439    Y=             -2.0523    Z=             -0.0001  Tot=              4.6243
 Quadrupole moment (field-independent basis, Debye-Ang):
   XX=            -40.6864   YY=            -47.5962   ZZ=            -48.6838
   XY=              3.0047   XZ=              0.0003   YZ=             -0.0001

 Normal termination of Gaussian 16 at Wed Apr  9 18:15:58 2025.
